<?xml version="1.0"?>
<VTKFile type="UnstructuredGrid"  version="0.1"  >
<UnstructuredGrid>
<Piece  NumberOfPoints="161" NumberOfCells="273">
<Points>
<DataArray  type="Float64"  NumberOfComponents="3"  format="ascii">0.2607954798483412 0.2000734467039846 0  0.2677287955329501 0.1964232082546741 0  0.267720770261538 0.2040020307458179 0  0.2751592582611745 0.2000017630754033 0  0.2604067998094575 0.1945974200941637 0  0.2639466301686591 0.1899932347281338 0  0.25 0.2 0  0.2497468076502589 0.2050254481002335 0  0.2550735503737706 0.2034102327410547 0  0.2825500645588542 0.203552857053063 0  0.2825435265383135 0.1959826714244972 0  0.2895064805557609 0.1998717465176288 0  0.2714228216982708 0.1899928785573363 0  0.2788954254080623 0.2100109575365461 0  0.2863706008850124 0.2100107148432907 0  0.3013268937333166 0.1899976364174348 0  0.2938506587283344 0.189996333466472 0  0.2951488298161334 0.1961827802286672 0  0.293845818137001 0.2100099695844043 0  0.3013213075001289 0.2100095860290742 0  0.2951469260390218 0.203823298897138 0  0.2601957356332368 0.2056903453666955 0  0.2497468076502614 0.1949745518997913 0  0.2548985981590686 0.1966932401729853 0  0.2751588071034591 0.2057038141405397 0  0.2751604675575609 0.194299839312204 0  0.2896011942206 0.1944057188056522 0  0.2564696069718438 0.1899955937608079 0  0.2525941063675152 0.1926021286192139 0  0.2898304766308851 0.2055997660412387 0  0.2564685429745486 0.2100056735796621 0  0.252622994905256 0.2074154870593111 0  0.2639447536872333 0.2100090548178914 0  0.2714201973140404 0.2100104971619331 0  0.286374680898161 0.1899947829075456 0  0.2788987750406965 0.1899935889174065 0  0.2489897948556636 0.19 0  0.2489897948556636 0.21 0  0.3412434088827541 0.100793568003415 0  0.322398405335432 0.08117453237731145 0  0.3444563007610067 0.06992522312399715 0  0.3579670681068143 0.1300149666751635 0  0.3429315889558955 0.1207444221061038 0  0.360687313391618 0.1037445795993817 0  0.276795465265355 0.1210839721326227 0  0.2603854661804667 0.1229786195938731 0  0.2739795192642677 0.1012944256930949 0  0.3643579751156736 0.08515715401340186 0  0.3684884354653263 0.05880990562994964 0  0.3866587517434389 0.03467502868401998 0  0.3887443104248455 0.07136251259388926 0  0.2802699906328985 0.2293319560920261 0  0.288860799942623 0.2217693619801895 0  0.2799343871204619 0.2201615046384754 0  0.3719669827803478 0.1185328590142667 0  0.279935196727743 0.1725704353357194 0  0.2888330561215625 0.1784512350179726 0  0.2798633111685691 0.1801877862491833 0  0.2607632891205422 0.2266968029667228 0  0.2714107609427032 0.2220319177368145 0  0.2640550001947846 0.2180005564579972 0  0.298189940617914 0.1637266631037906 0  0.3104562866618229 0.1564331509138411 0  0.2951367448924881 0.1519717463539353 0  0.2607517674251679 0.1732977431318709 0  0.2712243702038056 0.1784444607950602 0  0.26405696794512 0.1820019031921166 0  0.2517705700063044 0.1672824143236124 0  0.2510871255862425 0.1750211583193287 0  0.2592139511674962 0.1383218141220055 0  0.2719227619095786 0.138387964213102 0  0.3196671679474313 0.1014917031385974 0  0.341930069348433 0.1615406678917116 0  0.3539167317799599 0.1553583716368524 0  0.3411895914870386 0.1498451409840089 0  0.2975734705679919 0.1013681547529059 0  0.3134866625811789 0.1190282628598707 0  0.2957902219318898 0.1395192661713333 0  0.2942196158391382 0.1223644893162012 0  0.3101235539050783 0.134909664042545 0  0.2599621275170167 0.1624888824153668 0  0.246996525252926 0.2170682926548348 0  0.2561952272607877 0.2195035962237847 0  0.251075340380672 0.2249540506371919 0  0.2469965252529372 0.1829317073451959 0  0.2561963917039597 0.1804978479105327 0  0.2898147264641098 0.2309830905314738 0  0.2400332147834255 0.1700443375285386 0  0.2352133972704371 0.1645032867342007 0  0.2437647669753193 0.1628383269592241 0  0.3507833738795939 0.03771014455533699 0  0.2899417091749145 0.214897255671888 0  0.2826329094159542 0.2141964566391733 0  0.2533532635678604 0.2143546128024671 0  0.3096717987401401 0.1667766894837169 0  0.2533539902837709 0.1856462790469375 0  0.3556974926295285 6.166883772066833e-21 0  0.2836419463465751 0.1339672699815674 0  0.2901124828728266 0.1851214712612407 0  0.2826366780669876 0.1858085009108429 0  0.2693470895899875 0.1703612947267633 0  0.2885586948728723 0.168496001903831 0  0.2731250874108633 0.05509139307296138 0  0.300097797587887 0.06520963527242643 0  0.2987526606556941 0.03155250408882472 0  0.3872470411421007 0.1004758403461242 0  0.2788563128087466 0.08311667670368768 0  0.3238985889407636 0.05274471684763219 0  0.2439893735792749 0.1762316384219906 0  0.2755865561097726 0.152067329787326 0  0.2696217066945787 0.1606651466459043 0  0.2782351472242232 0.1631414550904486 0  0.3039181410055053 0.084205963956833 0  0.3876478552737351 0.1230036245811124 0  0.3299454775608027 0.1549625589310054 0  0.3305151238187621 0.1665522631369059 0  0.3024929327344275 0.169759299941162 0  0.3528549585299296 0.1449638155558221 0  0.2372322731291849 0.156514956199096 0  0.2974261912743417 0.2175692802021821 0  0.2974442869654918 0.182459094063824 0  0.2862965475799231 0.1579227861487441 0  0.2537739448320636 0.1534623957761475 0  0.2638573493912485 0.1507915676754654 0  0.2387308784783337 0.1472721367634537 0  0.2490456077562681 0.1431712202678302 0  0.2448843927424512 0.1541368331589619 0  0.2296339016332438 0.1597280261969788 0  0.2460450801433756 0.1705618785425067 0  0.3193814976762243 0.1460552153581229 0  0.3272885474655942 0.1310884942054313 0  0.3057194465458779 0.1462906576887225 0  0.2234150974217223 0.1558215752574715 0  0.2304164558468176 0.1515911816241016 0  0.2854215189555433 0.1110878956799676 0  0.3199616973756971 0.1691950681506363 0  0.3200060982776047 0.1784549683629265 0  0.3134112887849635 0.1745396821208099 0  0.3265520147007598 0.1745498645967031 0  0.3199220211826634 0.1594094242827516 0  0.3141745521465447 1.096225705544416e-21 0  0.3245628050570391 0.02783631071465796 0  0.2566174771853234 0.146638108073936 0  0.2847122971804949 0.1457936154857728 0  0.3052763465616474 0.1761376788168625 0  0.3126241795528789 0.1825746910275237 0  0.3050846784705023 0.1840010757065338 0  0.2754533951630903 0.2153574865684768 0  0.2751608564813587 0.184553333899091 0  0.2507273900212768 0.1602323274000035 0  0.365658628595624 0.1467104166863689 0  0.3751682002965064 0.1340075684309076 0  0.296909510422224 0.1734788417888869 0  0.3317463720342758 0.1434047755899628 0  0.2970463713040796 0.2264954610727999 0  0.3419883116040771 0.1376740151397807 0  0.269275715904117 0.215206057277945 0  0.2692135434969834 0.1848476962628402 0  0.2602068403829194 0.2140553502167852 0  0.2602083544952813 0.1859465100573211 0  0.3296726995608725 0.1156121751285529 0  </DataArray>
</Points>
<Cells>
<DataArray  type="UInt32"  Name="connectivity"  format="ascii">0 1 2  3 1 2  0 1 4  5 1 4  6 7 8  3 9 10  11 9 10  12 5 1  13 14 9  15 16 17  18 19 20  0 2 21  6 22 23  3 2 24  3 10 25  6 8 23  11 10 26  13 9 24  3 9 24  27 23 28  3 1 25  12 1 25  14 9 29  11 9 29  30 8 31  32 33 2  34 35 10  0 8 23  7 8 31  32 2 21  27 23 4  33 2 24  30 8 21  35 10 25  22 23 28  11 20 17  34 10 26  5 27 4  30 32 21  0 23 4  16 34 26  14 18 29  35 12 25  33 13 24  0 8 21  36 22 28  37 7 31  16 17 26  18 20 29  11 20 29  11 17 26  36 27 28  37 30 31  38 39 40  41 42 43  44 45 46  38 47 40  48 49 50  51 52 53  54 41 43  55 56 57  58 59 60  61 62 63  64 65 66  64 67 68  69 45 70  51 59 53  38 39 71  72 73 74  75 76 71  77 78 79  55 65 57  64 67 80  81 82 83  75 76 78  44 45 70  84 85 68  51 52 86  87 88 89  48 90 40  52 91 92  81 82 93  61 62 94  84 85 95  96 90 49  77 78 97  56 98 99  55 65 100  55 56 101  102 103 104  64 80 100  105 54 43  58 82 83  52 53 92  75 106 46  107 90 40  58 82 60  64 85 68  38 47 43  56 57 99  84 108 68  64 85 66  64 65 100  38 42 43  107 103 104  109 110 111  75 106 112  75 71 112  105 54 113  72 114 115  61 94 116  73 74 117  76 78 79  88 89 118  105 47 43  18 19 119  102 106 103  48 90 49  44 97 70  15 16 120  61 121 101  122 80 123  124 125 126  44 78 97  88 127 118  109 110 123  87 89 128  105 47 50  129 130 79  109 121 111  62 63 131  55 101 111  107 39 103  127 132 133  61 121 63  110 80 100  122 125 126  110 80 123  75 46 134  55 100 111  127 118 133  129 62 131  69 123 70  135 136 137  135 136 138  135 94 139  140 96 141  48 47 40  72 114 74  121 101 111  106 103 112  135 115 139  69 123 142  109 121 143  67 89 128  109 123 70  144 145 146  39 71 112  129 62 139  59 53 147  15 120 146  96 90 141  144 120 146  65 57 148  18 119 91  144 145 137  109 143 70  16 120 98  39 103 112  76 130 79  122 80 149  67 80 149  107 39 40  129 79 131  48 47 50  129 114 139  150 41 151  144 120 152  62 94 139  129 114 153  52 86 154  155 130 42  121 63 143  124 118 133  61 101 152  77 97 143  114 115 139  129 130 153  56 101 152  32 33 156  110 100 111  155 41 42  12 5 157  32 60 156  5 66 157  150 41 117  52 119 154  107 104 141  155 130 153  52 119 91  97 143 70  56 120 152  33 13 147  144 94 137  35 12 148  155 41 117  114 74 153  56 120 98  136 145 137  44 78 134  14 18 91  124 118 126  37 30 93  16 34 98  36 27 95  135 94 137  122 125 142  54 113 151  32 60 158  150 73 117  5 66 159  30 93 158  37 81 93  89 118 126  27 95 159  36 84 95  67 89 149  82 93 158  135 115 138  76 130 160  108 68 128  85 95 159  108 87 128  75 78 134  82 60 158  76 71 160  54 41 151  85 66 159  122 123 142  61 152 116  13 147 92  144 94 116  107 90 141  35 148 99  30 32 158  5 27 159  140 104 141  77 79 131  13 14 92  34 35 99  14 91 92  34 98 99  155 74 117  77 63 143  59 60 156  44 46 134  65 66 157  89 126 149  67 68 128  53 147 92  57 148 99  69 125 142  38 71 160  59 147 156  130 42 160  65 148 157  77 63 131  33 147 156  122 126 149  12 148 157  155 74 153  144 152 116  38 42 160  </DataArray>
<DataArray  type="UInt32"  Name="offsets"  format="ascii">3 6 9 12 15 18 21 24 27 30 33 36 39 42 45 48 51 54 57 60 63 66 69 72 75 78 81 84 87 90 93 96 99 102 105 108 111 114 117 120 123 126 129 132 135 138 141 144 147 150 153 156 159 162 165 168 171 174 177 180 183 186 189 192 195 198 201 204 207 210 213 216 219 222 225 228 231 234 237 240 243 246 249 252 255 258 261 264 267 270 273 276 279 282 285 288 291 294 297 300 303 306 309 312 315 318 321 324 327 330 333 336 339 342 345 348 351 354 357 360 363 366 369 372 375 378 381 384 387 390 393 396 399 402 405 408 411 414 417 420 423 426 429 432 435 438 441 444 447 450 453 456 459 462 465 468 471 474 477 480 483 486 489 492 495 498 501 504 507 510 513 516 519 522 525 528 531 534 537 540 543 546 549 552 555 558 561 564 567 570 573 576 579 582 585 588 591 594 597 600 603 606 609 612 615 618 621 624 627 630 633 636 639 642 645 648 651 654 657 660 663 666 669 672 675 678 681 684 687 690 693 696 699 702 705 708 711 714 717 720 723 726 729 732 735 738 741 744 747 750 753 756 759 762 765 768 771 774 777 780 783 786 789 792 795 798 801 804 807 810 813 816 819 </DataArray>
<DataArray  type="UInt8"  Name="types"  format="ascii">5 5 5 5 5 5 5 5 5 5 5 5 5 5 5 5 5 5 5 5 5 5 5 5 5 5 5 5 5 5 5 5 5 5 5 5 5 5 5 5 5 5 5 5 5 5 5 5 5 5 5 5 5 5 5 5 5 5 5 5 5 5 5 5 5 5 5 5 5 5 5 5 5 5 5 5 5 5 5 5 5 5 5 5 5 5 5 5 5 5 5 5 5 5 5 5 5 5 5 5 5 5 5 5 5 5 5 5 5 5 5 5 5 5 5 5 5 5 5 5 5 5 5 5 5 5 5 5 5 5 5 5 5 5 5 5 5 5 5 5 5 5 5 5 5 5 5 5 5 5 5 5 5 5 5 5 5 5 5 5 5 5 5 5 5 5 5 5 5 5 5 5 5 5 5 5 5 5 5 5 5 5 5 5 5 5 5 5 5 5 5 5 5 5 5 5 5 5 5 5 5 5 5 5 5 5 5 5 5 5 5 5 5 5 5 5 5 5 5 5 5 5 5 5 5 5 5 5 5 5 5 5 5 5 5 5 5 5 5 5 5 5 5 5 5 5 5 5 5 5 5 5 5 5 5 5 5 5 5 5 5 5 5 5 5 5 5 5 5 5 5 5 5 </DataArray>
</Cells>
<PointData  Vectors="d"> 
<DataArray  type="Float64"  Name="d"  NumberOfComponents="3" format="ascii">1.6981368130818978e-08 2.8187553287532448e-10 0.0000000000000000e+00  1.9316971828232122e-08 -1.0629283694237185e-08 0.0000000000000000e+00  1.8736923912612590e-08 1.2570516961014899e-08 0.0000000000000000e+00  2.2554101975678882e-08 5.7136240015512968e-10 0.0000000000000000e+00  1.3692362640813431e-08 -1.1409200814041987e-08 0.0000000000000000e+00  5.9401588456088579e-09 -2.8318909641258192e-08 0.0000000000000000e+00  0.0000000000000000e+00 0.0000000000000000e+00 0.0000000000000000e+00  0.0000000000000000e+00 0.0000000000000000e+00 0.0000000000000000e+00  9.5436424158792384e-09 3.3073119645484543e-09 0.0000000000000000e+00  2.1239358654255479e-08 1.5825577693012393e-08 0.0000000000000000e+00  2.0999328378727628e-08 -1.6172073787528523e-08 0.0000000000000000e+00  2.3051264022740354e-08 3.8036539015353567e-10 0.0000000000000000e+00  7.7041580321503463e-09 -3.5414206771892524e-08 0.0000000000000000e+00  8.9206561649707925e-09 4.1814091476975501e-08 0.0000000000000000e+00  1.0674996761782580e-08 4.5887846932292330e-08 0.0000000000000000e+00  1.5440372193634499e-08 -5.0283052302987462e-08 0.0000000000000000e+00  1.3341094100138843e-08 -4.6718436183345465e-08 0.0000000000000000e+00  2.1776115741929522e-08 -1.7366318559900978e-08 0.0000000000000000e+00  1.2557591829051718e-08 4.8867339245311755e-08 0.0000000000000000e+00  1.4530053938208290e-08 5.2779771427322163e-08 0.0000000000000000e+00  2.1465611362678882e-08 1.9542157559224490e-08 0.0000000000000000e+00  1.3049723645411907e-08 1.2106600237085892e-08 0.0000000000000000e+00  0.0000000000000000e+00 0.0000000000000000e+00 0.0000000000000000e+00  9.3390065877514045e-09 -3.0082175615205177e-09 0.0000000000000000e+00  1.7862044962312178e-08 2.2201966053112197e-08 0.0000000000000000e+00  1.8052703504958014e-08 -2.1039841546716477e-08 0.0000000000000000e+00  1.9717730225536725e-08 -2.4722364437459296e-08 0.0000000000000000e+00  3.6585260847874539e-09 -1.6932301051077151e-08 0.0000000000000000e+00  4.6110754368755760e-09 -4.8622257584807238e-09 0.0000000000000000e+00  1.9298907488601999e-08 2.6790705630882772e-08 0.0000000000000000e+00  3.4661526517425843e-09 1.7064166812569446e-08 0.0000000000000000e+00  4.5593502197814822e-09 4.9928678018709184e-09 0.0000000000000000e+00  5.6148033301469055e-09 2.8637441849553243e-08 0.0000000000000000e+00  7.2709136054110781e-09 3.6240076773569525e-08 0.0000000000000000e+00  1.1345144874430858e-08 -4.3853078648382003e-08 0.0000000000000000e+00  9.4723546007610699e-09 -4.0191793160877924e-08 0.0000000000000000e+00  0.0000000000000000e+00 0.0000000000000000e+00 0.0000000000000000e+00  0.0000000000000000e+00 0.0000000000000000e+00 0.0000000000000000e+00  1.7083642604904888e-08 -2.0290997521499377e-08 0.0000000000000000e+00  1.1631892745349735e-08 -1.4500153086219636e-08 0.0000000000000000e+00  1.2414800900869747e-08 -1.3434849059776792e-08 0.0000000000000000e+00  2.5190506890953927e-08 -2.9344693988056079e-08 0.0000000000000000e+00  2.0456217803216576e-08 -2.5711084961830682e-08 0.0000000000000000e+00  2.0847428431288867e-08 -2.2064616398702931e-08 0.0000000000000000e+00  8.7366673127096935e-09 -1.5720010977683274e-08 0.0000000000000000e+00  6.4326356309520547e-09 -1.2141411463561918e-08 0.0000000000000000e+00  7.5929804830626193e-09 -1.2417142626686735e-08 0.0000000000000000e+00  1.7717273724944365e-08 -1.7588381293572925e-08 0.0000000000000000e+00  1.2663752370459543e-08 -1.1783645678606692e-08 0.0000000000000000e+00  8.4353189196809493e-09 -6.9396710713851614e-09 0.0000000000000000e+00  1.7657153102875331e-08 -1.4792767785349368e-08 0.0000000000000000e+00  9.4182221756363331e-09 3.0594145416724943e-08 0.0000000000000000e+00  1.1405946675320386e-08 3.8985091258590570e-08 0.0000000000000000e+00  9.2809320068156410e-09 3.5144502257488270e-08 0.0000000000000000e+00  2.5995278914388916e-08 -2.6407057653963848e-08 0.0000000000000000e+00  9.8613388129759047e-09 -2.9846506776412195e-08 0.0000000000000000e+00  1.2075459421766543e-08 -3.7242653754001416e-08 0.0000000000000000e+00  9.8073918554219751e-09 -3.3834037657709403e-08 0.0000000000000000e+00  4.7947680144379758e-09 1.7307577766284591e-08 0.0000000000000000e+00  7.2950764437785063e-09 2.8116030862974962e-08 0.0000000000000000e+00  5.4517066155734019e-09 2.3296856448503903e-08 0.0000000000000000e+00  1.4221404713460188e-08 -3.3237904957083682e-08 0.0000000000000000e+00  1.6919634015134131e-08 -3.3270308318569037e-08 0.0000000000000000e+00  1.3137169624797275e-08 -2.7816205586101038e-08 0.0000000000000000e+00  5.0503304595852300e-09 -1.6662481255410935e-08 0.0000000000000000e+00  7.6607549846056175e-09 -2.7187242458548752e-08 0.0000000000000000e+00  5.7621980335220576e-09 -2.2687872254881223e-08 0.0000000000000000e+00  3.1510798303118679e-09 -9.1699664151102419e-09 0.0000000000000000e+00  2.2652555431642153e-09 -7.5379811022378677e-09 0.0000000000000000e+00  6.1246787484245853e-09 -1.2914252698436387e-08 0.0000000000000000e+00  8.2502544421279127e-09 -1.7072488276161013e-08 0.0000000000000000e+00  1.3809096127451103e-08 -1.8627736633731964e-08 0.0000000000000000e+00  2.5753624092691391e-08 -3.9423413096844550e-08 0.0000000000000000e+00  2.8347814653301944e-08 -3.7681520097127315e-08 0.0000000000000000e+00  2.4114382705584470e-08 -3.4923759953560709e-08 0.0000000000000000e+00  1.0609655772139965e-08 -1.5943358994733865e-08 0.0000000000000000e+00  1.4664666978113056e-08 -2.2084284982036905e-08 0.0000000000000000e+00  1.2772292485799103e-08 -2.4185591768041005e-08 0.0000000000000000e+00  1.1576556098181793e-08 -1.9638834616571569e-08 0.0000000000000000e+00  1.5391560642737890e-08 -2.5881009361105427e-08 0.0000000000000000e+00  5.3644470389195587e-09 -1.4765662814562670e-08 0.0000000000000000e+00  0.0000000000000000e+00 0.0000000000000000e+00 0.0000000000000000e+00  3.2735765372968644e-09 1.3479171986665160e-08 0.0000000000000000e+00  2.1463679440331154e-09 7.7899755865981664e-09 0.0000000000000000e+00  0.0000000000000000e+00 0.0000000000000000e+00 0.0000000000000000e+00  3.4544409054040824e-09 -1.3132737116679218e-08 0.0000000000000000e+00  1.1604754801240850e-08 3.4526512829190938e-08 0.0000000000000000e+00  0.0000000000000000e+00 0.0000000000000000e+00 0.0000000000000000e+00  0.0000000000000000e+00 0.0000000000000000e+00 0.0000000000000000e+00  1.8514364768063235e-09 -4.8419660033374797e-09 0.0000000000000000e+00  7.1169844741589837e-09 -7.1285540705293446e-09 0.0000000000000000e+00  1.1633058197961300e-08 4.3794996865393685e-08 0.0000000000000000e+00  9.8546280076310721e-09 4.0754843068530567e-08 0.0000000000000000e+00  2.1855387168263574e-09 9.8179427800814220e-09 0.0000000000000000e+00  1.7251276253891663e-08 -3.7510424359321149e-08 0.0000000000000000e+00  2.3055154099988458e-09 -9.6471760490734843e-09 0.0000000000000000e+00  0.0000000000000000e+00 0.0000000000000000e+00 0.0000000000000000e+00  1.0253681539917552e-08 -1.9702796236612072e-08 0.0000000000000000e+00  1.2388552798388491e-08 -4.1878538734440417e-08 0.0000000000000000e+00  1.0456318602017331e-08 -3.9028174660188292e-08 0.0000000000000000e+00  7.3082173720534290e-09 -2.2522387662662041e-08 0.0000000000000000e+00  1.1954237429817913e-08 -3.1996727184219708e-08 0.0000000000000000e+00  4.6173038447903629e-09 -6.5831782233876317e-09 0.0000000000000000e+00  7.4790534234215338e-09 -9.9099001892348618e-09 0.0000000000000000e+00  3.6737375397645786e-09 -4.6343805279394571e-09 0.0000000000000000e+00  2.4704517170684286e-08 -2.1748053404208670e-08 0.0000000000000000e+00  7.0821778893703666e-09 -1.0653602967011018e-08 0.0000000000000000e+00  7.8339490351618955e-09 -9.1304743954927875e-09 0.0000000000000000e+00  0.0000000000000000e+00 0.0000000000000000e+00 0.0000000000000000e+00  8.9516861274653135e-09 -2.0964044610435058e-08 0.0000000000000000e+00  7.5770069038623821e-09 -2.0102838316549943e-08 0.0000000000000000e+00  9.4932006625650518e-09 -2.5228076700604251e-08 0.0000000000000000e+00  9.8313256552212278e-09 -1.3495032916574577e-08 0.0000000000000000e+00  3.0385619149461160e-08 -2.7791337086785800e-08 0.0000000000000000e+00  2.1749141075689290e-08 -3.5752002668388632e-08 0.0000000000000000e+00  2.2979354748706634e-08 -4.0526389222681101e-08 0.0000000000000000e+00  1.5482285079445702e-08 -3.7239834470815973e-08 0.0000000000000000e+00  2.6452643816479609e-08 -3.3943836398401917e-08 0.0000000000000000e+00  1.4898697799487411e-09 -3.4934205327881626e-09 0.0000000000000000e+00  1.3526355102756547e-08 4.5158708343875995e-08 0.0000000000000000e+00  1.4352589788033998e-08 -4.2931573561198096e-08 0.0000000000000000e+00  1.1300544015328987e-08 -2.6913184656700836e-08 0.0000000000000000e+00  4.5934794216278514e-09 -1.1171944556376605e-08 0.0000000000000000e+00  6.6248563126759079e-09 -1.5697111455984157e-08 0.0000000000000000e+00  2.6344480088702712e-09 -5.7803668113595388e-09 0.0000000000000000e+00  4.3753676187765102e-09 -9.5566327412379309e-09 0.0000000000000000e+00  2.9591455035924738e-09 -7.0632990826558443e-09 0.0000000000000000e+00  0.0000000000000000e+00 0.0000000000000000e+00 0.0000000000000000e+00  1.3966798027184097e-09 -4.1478541289386473e-09 0.0000000000000000e+00  1.8319741520898688e-08 -3.1035661707614807e-08 0.0000000000000000e+00  1.8598360640476807e-08 -2.7264581544354139e-08 0.0000000000000000e+00  1.5223997236826048e-08 -2.8574072869277407e-08 0.0000000000000000e+00  0.0000000000000000e+00 0.0000000000000000e+00 0.0000000000000000e+00  1.2030580171990563e-09 -2.6099853844918150e-09 0.0000000000000000e+00  9.5714560869888443e-09 -1.5807607124781379e-08 0.0000000000000000e+00  2.0176387537946898e-08 -4.0410481683369380e-08 0.0000000000000000e+00  2.0703474983315429e-08 -4.4854040491252830e-08 0.0000000000000000e+00  1.8608512998265778e-08 -4.1960765303792359e-08 0.0000000000000000e+00  2.2436447496837988e-08 -4.3691443204331395e-08 0.0000000000000000e+00  1.9507471382585792e-08 -3.6169791507362963e-08 0.0000000000000000e+00  0.0000000000000000e+00 0.0000000000000000e+00 0.0000000000000000e+00  4.2031828884187882e-09 -4.7414932547560041e-09 0.0000000000000000e+00  5.4412791998448964e-09 -1.2362390782700448e-08 0.0000000000000000e+00  1.0755288131522351e-08 -2.2751883537671656e-08 0.0000000000000000e+00  1.6398882616991149e-08 -4.1235119098404483e-08 0.0000000000000000e+00  1.8664754732369501e-08 -4.6082897742017842e-08 0.0000000000000000e+00  1.6497631380835540e-08 -4.5863728563102731e-08 0.0000000000000000e+00  8.1982219811965895e-09 3.5150878940106088e-08 0.0000000000000000e+00  8.6139823890158236e-09 -3.3651801310440217e-08 0.0000000000000000e+00  3.5226889998139101e-09 -9.2239177402319199e-09 0.0000000000000000e+00  3.0143851553083918e-08 -3.4960360300770606e-08 0.0000000000000000e+00  3.0038137522282052e-08 -3.1008280451706404e-08 0.0000000000000000e+00  1.4116060715410825e-08 -3.7504907201412554e-08 0.0000000000000000e+00  2.0984986641457976e-08 -3.1755771242756479e-08 0.0000000000000000e+00  1.3365627250521835e-08 3.9672827563997929e-08 0.0000000000000000e+00  2.2697499785253618e-08 -3.0804032986088724e-08 0.0000000000000000e+00  6.7586296302381487e-09 3.0217469144933398e-08 0.0000000000000000e+00  7.1373901776941491e-09 -2.9386905307083593e-08 0.0000000000000000e+00  4.4366553682184466e-09 2.0504957990011454e-08 0.0000000000000000e+00  4.6890151553805300e-09 -2.0152613031836733e-08 0.0000000000000000e+00  1.7206362351516914e-08 -2.3135286874041334e-08 0.0000000000000000e+00  </DataArray> 
</PointData> 
</Piece>
</UnstructuredGrid>
</VTKFile>