<?xml version="1.0"?>
<VTKFile type="UnstructuredGrid"  version="0.1"  >
<UnstructuredGrid>
<Piece  NumberOfPoints="159" NumberOfCells="270">
<Points>
<DataArray  type="Float64"  NumberOfComponents="3"  format="ascii">0.4618364086343301 0.1999999999967272 0  0.4543681063966495 0.1970915827111972 0  0.4543681063949968 0.2040749161108724 0  0.4767730131074419 0.1999999999970144 0  0.4693047108698084 0.1970915827092663 0  0.4693047108682427 0.2040749161143156 0  0.4917096175805648 0.1999999999972372 0  0.4842413153429634 0.1970915827073483 0  0.4842413153414662 0.204074916117592 0  0.4991779198161207 0.1970915827054418 0  0.4991779198147055 0.2040749161207414 0  0.4730388619766465 0.1900000000841341 0  0.4655705597399353 0.190000000087778 0  0.4879754664501332 0.1900000000769771 0  0.4805071642134196 0.1900000000805202 0  0.4581022575031479 0.190000000091472 0  0.4506339552664039 0.1900000000951843 0  0.461836408629378 0.2056971941729132 0  0.4767730131026919 0.2056971941774828 0  0.4917096175759718 0.2056971941818688 0  0.4767730131034184 0.1943028058166412 0  0.4618364086301796 0.1943028058206475 0  0.4917096175766567 0.1943028058126913 0  0.4954437686868791 0.190000000073444 0  0.4805071642126947 0.2099999999138928 0  0.4879754664494176 0.2099999999176524 0  0.4655705597391483 0.2099999999061382 0  0.4730388619758999 0.2099999999100475 0  0.4581022575023375 0.2099999999021417 0  0.4954437686861876 0.2099999999213689 0  0.4543681063835281 0.1676928601594408 0  0.4456512193188887 0.1563006664005591 0  0.4634554112026039 0.1565876018753308 0  0.5019588294012464 0.1448324961875438 0  0.5202014138784132 0.1378594851136296 0  0.5186581766869895 0.1505504707145095 0  0.4991779198042808 0.1676933855705201 0  0.4900906149842597 0.1565876018655308 0  0.5082652246234187 0.1565876018587325 0  0.5461387848654985 0.117476466984332 0  0.5361687701493623 0.1326608756473965 0  0.5197325460674113 0.1214075108490128 0  0.5857082964507585 0.1444062384235294 0  0.5690392421184923 0.1384821647960717 0  0.5733051421825199 0.1505504706940012 0  0.4953767731803692 0.1188694762127089 0  0.5062551801122768 0.1312411055905982 0  0.4143465138011173 0.05322961014403835 0  0.3866266297161962 0.03466711671512861 0  0.3886771468229713 0.07134613385123381 0  0.6048769510835503 0.1323679928405586 0  0.5975491358239688 0.1534040597015574 0  0.4552963513070826 0.1454448947890628 0  0.4735622322340349 0.1489594067091494 0  0.4306061843405799 0.1007106891917297 0  0.41211975494771 0.08306196360891122 0  0.4341927647980343 0.06945916975904232 0  0.5691769360618905 0.1036239220209882 0  0.5817033662364894 0.1258684224672325 0  0.5656709190009515 0.1218263852615794 0  0.5257318662486333 0.1055286630657266 0  0.5950070799612045 0.1111116928277063 0  0.4474989647393439 0.1297107067649218 0  0.4322147276847634 0.120803636159389 0  0.45006398448243 0.1038268108147776 0  0.4538259418610615 0.0851389183418344 0  0.5448392573418421 0.14562667339117 0  0.552020954732827 0.1576841815070108 0  0.5608732073127014 0.1493935173315504 0  0.4582183089707281 0.05889916919402018 0  0.4771650921184226 0.03456824905673965 0  0.4786311469287213 0.07193451404971432 0  0.4647004930109627 0.1337957577861224 0  0.5869673343216626 1.505129572543049e-27 0  0.5932743238857987 0.04945528002215665 0  0.558463949522238 0.03508113341428541 0  0.4767380076686695 0.1813492123653947 0  0.5081447438804484 0.05715290843263923 0  0.4614662289257564 0.1185262515944783 0  0.5053372490803251 0.1024328897296354 0  0.4626056464321045 0.217558371559557 0  0.4767730130939027 0.2184019875643896 0  0.5536582001370679 0.1343709232354944 0  0.4319631996726596 0.1622083791568865 0  0.4308549333367268 0.1502035541280508 0  0.4116738586588736 0.1041859388215851 0  0.5950341100378413 0.08371649313135911 0  0.476773013093693 0.1622083791397652 0  0.5443827500070673 0.09366669781282687 0  0.3881774741480732 0.1375237981770941 0  0.3839301663989849 0.149077512265532 0  0.3750556316294876 0.1339831864910691 0  0.3871533862471003 0.1004535961752195 0  0.404821195857971 0.1196730943246412 0  0.3875331581703198 0.1229770159550422 0  0.5666635607844843 0.1612678073436431 0  0.5830971905396511 0.1610562557798687 0  0.5390824052237869 0.06744833189829137 0  0.5212239823772387 0.08492404395915538 0  0.5215828265142922 0.1622083791222928 0  0.5349004284048137 0.1565876018486728 0  0.3556974926295285 2.306864683811593e-26 0  0.3987229542472677 1.798397042131771e-26 0  0.4433053055141081 2.313271436844988e-26 0  0.4410855102986165 0.03751680875772246 0  0.4004709881417802 0.1565876018944534 0  0.3969581968593661 0.1447077888560254 0  0.5666194772452784 0.07265723180185085 0  0.4767730130912138 0.1004582016871572 0  0.4895008759286886 1.393114197774905e-26 0  0.4777970859128813 0.1375242925032359 0  0.4431656530295908 0.1900000000989642 0  0.4470091562115473 0.1825689018092984 0  0.461725887016337 0.1826555626354351 0  0.4423561517359016 0.144929693471473 0  0.4917096175681641 0.1826726487972397 0  0.4356973507928156 0.1900000001027601 0  0.4319982050997582 0.181349212385977 0  0.4394315019107936 0.1834818377452052 0  0.4421177170941801 0.1672874946313163 0  0.4772531296190488 0.1229170030422513 0  0.4990943684025939 0.08379643706608564 0  0.4693047108579455 0.1834818377311577 0  0.4842366479413511 0.1837683957944582 0  0.4666592720175329 0.1673206602057423 0  0.4867628426252401 0.1672556639104663 0  0.487020969013237 0.1445552226538334 0  0.5373680609405097 1.262116377797983e-26 0  0.5115929969832412 0.1672556639004318 0  0.4693357546160705 0.2160476852388921 0  0.4841984187267919 0.2159109987765158 0  0.4910031975990565 0.2171006716358725 0  0.4398548996968115 0.1761054821257341 0  0.4200158654628634 0.1549967048088579 0  0.4215978938867048 0.1660535232995876 0  0.4688813130711017 0.1761054821129966 0  0.5312943323873873 0.1447479120424902 0  0.4842413153310887 0.1755365128275309 0  0.5312379346131403 0.0392129478670146 0  0.4096953638768869 0.1593611748850154 0  0.4319720988292893 0.1712601409715386 0  0.4165284377758308 0.02576952323501553 0  0.4543558262057968 0.1783191039652154 0  0.4476321387017855 0.1742462879597116 0  0.4611006434129792 0.174257842731632 0  0.4007921484984954 0.1334520017978973 0  0.4767269250591405 0.1713973971996111 0  0.499177919804715 0.1783172035124854 0  0.4923389098645294 0.1741809712210418 0  0.5060169297445417 0.1741809712152548 0  0.4094216635153665 0.1459162971035528 0  0.4171240436023078 0.1307099485935181 0  0.5106627028200651 0.02256181956754181 0  0.4543663130886012 0.1848930799013131 0  0.4214619365771042 0.1433505760242078 0  0.4687683012364454 0.223457294950322 0  0.4908029823879931 0.1335072114084219 0  0.4315229872910721 0.1375769538280454 0  0.4191531771032614 0.1155832460960289 0  </DataArray>
</Points>
<Cells>
<DataArray  type="UInt32"  Name="connectivity"  format="ascii">0 1 2  3 4 5  6 7 8  6 9 10  3 7 8  0 4 5  11 12 4  13 14 7  15 16 1  0 2 17  3 5 18  6 8 19  6 10 19  3 8 18  0 5 17  11 4 20  3 7 20  14 7 20  3 4 20  12 4 21  13 7 22  15 1 21  23 9 22  0 1 21  0 4 21  6 7 22  6 9 22  24 25 8  26 27 5  24 8 18  27 5 18  26 5 17  28 2 17  25 8 19  29 10 19  27 24 18  28 26 17  25 29 19  14 11 20  12 15 21  23 13 22  30 31 32  33 34 35  36 37 38  39 40 41  42 43 44  45 46 41  47 48 49  42 50 51  52 32 53  54 55 56  57 58 59  60 39 41  57 61 58  33 38 35  62 63 64  54 65 56  66 67 68  69 70 71  33 34 46  52 53 72  73 74 75  14 11 76  77 70 71  78 62 64  45 41 79  28 26 80  27 24 81  66 82 68  83 31 84  52 31 32  54 55 85  42 43 58  57 61 86  33 37 38  87 37 53  60 39 88  89 90 91  92 93 85  47 55 49  92 55 85  92 93 94  95 96 44  77 97 98  99 100 35  101 102 48  103 104 70  66 100 67  105 90 106  97 75 107  108 78 64  92 55 49  69 104 56  43 82 68  103 109 70  42 50 58  54 65 64  74 75 107  110 53 72  16 111 112  12 15 113  31 84 114  23 13 115  54 63 64  60 41 79  108 45 79  116 117 118  30 31 119  108 78 120  77 121 98  47 104 56  11 76 122  14 76 123  30 32 124  108 45 120  36 37 125  37 53 126  127 73 75  108 121 79  108 65 64  36 38 128  57 88 107  77 121 71  26 80 129  27 81 129  24 81 130  25 29 131  132 112 118  83 133 134  135 113 122  108 65 71  83 31 119  100 35 136  137 115 123  69 104 70  87 32 124  108 121 71  77 97 138  111 116 118  87 37 125  57 39 88  11 12 122  13 14 123  133 134 139  97 75 138  132 117 140  42 96 44  26 27 129  24 25 130  102 103 141  99 38 128  89 94 91  30 142 143  30 142 144  83 133 84  57 39 59  89 94 145  135 76 146  36 147 148  97 88 107  137 76 146  36 147 149  132 112 143  127 75 138  111 112 118  36 148 125  135 113 144  12 113 122  132 119 140  13 115 123  150 151 145  36 149 128  30 143 119  30 144 124  137 115 148  87 32 53  132 117 118  135 124 146  69 65 56  109 127 152  16 112 153  127 138 152  25 131 130  15 113 153  135 76 122  99 38 35  137 125 146  57 86 107  137 76 123  150 105 139  150 133 139  52 62 72  83 119 140  150 133 154  110 120 72  155 80 129  69 65 71  155 81 129  110 120 156  47 55 56  61 50 58  87 124 146  83 134 140  33 46 156  74 86 107  157 62 63  60 79 98  93 94 145  157 151 63  52 62 114  87 125 146  150 105 106  133 84 154  95 67 68  15 16 153  132 143 119  142 112 143  66 40 82  137 148 125  150 151 154  142 113 144  157 62 114  147 115 148  135 144 124  93 151 145  43 58 59  142 112 153  142 113 153  52 31 114  42 96 51  78 120 72  103 104 141  89 90 106  60 88 98  34 40 41  121 79 98  34 46 41  45 120 156  157 151 154  66 40 136  33 37 126  78 62 72  77 70 152  43 59 82  34 40 136  157 84 114  45 46 156  66 100 136  47 48 141  110 53 126  95 44 68  150 145 106  97 88 98  47 104 141  102 48 141  89 145 106  39 40 82  77 138 152  34 35 136  93 85 158  43 44 68  39 59 82  93 151 158  33 156 126  54 85 158  109 70 152  151 63 158  110 156 126  54 63 158  157 84 154  </DataArray>
<DataArray  type="UInt32"  Name="offsets"  format="ascii">3 6 9 12 15 18 21 24 27 30 33 36 39 42 45 48 51 54 57 60 63 66 69 72 75 78 81 84 87 90 93 96 99 102 105 108 111 114 117 120 123 126 129 132 135 138 141 144 147 150 153 156 159 162 165 168 171 174 177 180 183 186 189 192 195 198 201 204 207 210 213 216 219 222 225 228 231 234 237 240 243 246 249 252 255 258 261 264 267 270 273 276 279 282 285 288 291 294 297 300 303 306 309 312 315 318 321 324 327 330 333 336 339 342 345 348 351 354 357 360 363 366 369 372 375 378 381 384 387 390 393 396 399 402 405 408 411 414 417 420 423 426 429 432 435 438 441 444 447 450 453 456 459 462 465 468 471 474 477 480 483 486 489 492 495 498 501 504 507 510 513 516 519 522 525 528 531 534 537 540 543 546 549 552 555 558 561 564 567 570 573 576 579 582 585 588 591 594 597 600 603 606 609 612 615 618 621 624 627 630 633 636 639 642 645 648 651 654 657 660 663 666 669 672 675 678 681 684 687 690 693 696 699 702 705 708 711 714 717 720 723 726 729 732 735 738 741 744 747 750 753 756 759 762 765 768 771 774 777 780 783 786 789 792 795 798 801 804 807 810 </DataArray>
<DataArray  type="UInt8"  Name="types"  format="ascii">5 5 5 5 5 5 5 5 5 5 5 5 5 5 5 5 5 5 5 5 5 5 5 5 5 5 5 5 5 5 5 5 5 5 5 5 5 5 5 5 5 5 5 5 5 5 5 5 5 5 5 5 5 5 5 5 5 5 5 5 5 5 5 5 5 5 5 5 5 5 5 5 5 5 5 5 5 5 5 5 5 5 5 5 5 5 5 5 5 5 5 5 5 5 5 5 5 5 5 5 5 5 5 5 5 5 5 5 5 5 5 5 5 5 5 5 5 5 5 5 5 5 5 5 5 5 5 5 5 5 5 5 5 5 5 5 5 5 5 5 5 5 5 5 5 5 5 5 5 5 5 5 5 5 5 5 5 5 5 5 5 5 5 5 5 5 5 5 5 5 5 5 5 5 5 5 5 5 5 5 5 5 5 5 5 5 5 5 5 5 5 5 5 5 5 5 5 5 5 5 5 5 5 5 5 5 5 5 5 5 5 5 5 5 5 5 5 5 5 5 5 5 5 5 5 5 5 5 5 5 5 5 5 5 5 5 5 5 5 5 5 5 5 5 5 5 5 5 5 5 5 5 5 5 5 5 5 5 5 5 5 5 5 5 5 5 5 5 5 5 </DataArray>
</Cells>
<PointData  Vectors="d"> 
<DataArray  type="Float64"  Name="d"  NumberOfComponents="3" format="ascii">3.9847592477373624e-11 -5.6660924441499585e-12 0.0000000000000000e+00  3.8862580797754087e-11 4.4944009237857475e-11 0.0000000000000000e+00  3.6970264114533424e-11 -7.7239845202334030e-11 0.0000000000000000e+00  3.7755303369188230e-11 -5.1725979532749030e-12 0.0000000000000000e+00  3.6863804546207335e-11 4.1468222776436973e-11 0.0000000000000000e+00  3.5001376671450519e-11 -7.1030104566621170e-11 0.0000000000000000e+00  3.5645248007872547e-11 -4.7831584371659595e-12 0.0000000000000000e+00  3.4825712228427720e-11 3.7996959675456909e-11 0.0000000000000000e+00  3.2996721614169349e-11 -6.5125016109181615e-11 0.0000000000000000e+00  3.2767818487525184e-11 3.4557377406937402e-11 0.0000000000000000e+00  3.0975753384547604e-11 -5.9456927778571315e-11 0.0000000000000000e+00  1.5736295872768959e-11 1.5243851186191702e-10 0.0000000000000000e+00  1.6454706167011780e-11 1.5901068985628231e-10 0.0000000000000000e+00  1.4284239357118097e-11 1.3953315153367374e-10 0.0000000000000000e+00  1.5034899110167710e-11 1.4592196877229082e-10 0.0000000000000000e+00  1.7111329556524190e-11 1.6567161547379506e-10 0.0000000000000000e+00  1.7788063278064596e-11 1.7236639867438846e-10 0.0000000000000000e+00  3.2356739295927674e-11 -1.0111383392021445e-10 0.0000000000000000e+00  3.0461923681330843e-11 -9.2882323679212797e-11 0.0000000000000000e+00  2.8539134029810313e-11 -8.4972823582201432e-11 0.0000000000000000e+00  3.0503389049389387e-11 8.2495379121773550e-11 0.0000000000000000e+00  3.2363273690223176e-11 8.9731644030214441e-11 0.0000000000000000e+00  2.8603643684368610e-11 7.5364140104117790e-11 0.0000000000000000e+00  1.3538611415257512e-11 1.3316311484236662e-10 0.0000000000000000e+00  1.4950530933885916e-11 -1.5603448889602485e-10 0.0000000000000000e+00  1.4184947345880911e-11 -1.4925115297149987e-10 0.0000000000000000e+00  1.6422140590796102e-11 -1.7002774378968297e-10 0.0000000000000000e+00  1.5683004315139493e-11 -1.6297275986670044e-10 0.0000000000000000e+00  1.7127573576826446e-11 -1.7724060308460245e-10 0.0000000000000000e+00  1.3417010192136942e-11 -1.4254578321204965e-10 0.0000000000000000e+00  1.4760213186297035e-11 1.4692045329381126e-10 0.0000000000000000e+00  1.4028815490727795e-11 1.4138811352271149e-10 0.0000000000000000e+00  1.2895263650705490e-11 1.3000647222004481e-10 0.0000000000000000e+00  9.0220818999676702e-12 9.5940843971152493e-11 0.0000000000000000e+00  7.1588488455513270e-12 8.0418414798854298e-11 0.0000000000000000e+00  8.0590413541542108e-12 8.9117946691283486e-11 0.0000000000000000e+00  1.1090503450260769e-11 1.1403225613844092e-10 0.0000000000000000e+00  1.0905260590621725e-11 1.1218403153070150e-10 0.0000000000000000e+00  9.3838251267225742e-12 9.9915952536645266e-11 0.0000000000000000e+00  4.4166154747941851e-12 5.5542336880165312e-11 0.0000000000000000e+00  5.6799393187104641e-12 6.8246453350376748e-11 0.0000000000000000e+00  6.2580314386816357e-12 7.0807433143774146e-11 0.0000000000000000e+00  1.9392731461131840e-12 4.2168878867311002e-11 0.0000000000000000e+00  3.2629567405606666e-12 5.1205511610061958e-11 0.0000000000000000e+00  2.9002797899817043e-12 5.2026268208263054e-11 0.0000000000000000e+00  7.5592325029734402e-12 8.1148309820877340e-11 0.0000000000000000e+00  7.7464507951306273e-12 8.4138829160195735e-11 0.0000000000000000e+00  4.5358644981065458e-12 4.8071905919165697e-11 0.0000000000000000e+00  3.0021453381303866e-12 3.2028990360578404e-11 0.0000000000000000e+00  6.4112518437031005e-12 6.8150827318244219e-11 0.0000000000000000e+00  1.1023518726943836e-12 2.9909116336318703e-11 0.0000000000000000e+00  8.0072034866770844e-13 3.5194478144846424e-11 0.0000000000000000e+00  1.2250914469270223e-11 1.2462499734210814e-10 0.0000000000000000e+00  1.1435027761025114e-11 1.1674134741664186e-10 0.0000000000000000e+00  8.7189881631397308e-12 9.1130426423023603e-11 0.0000000000000000e+00  7.3555091988587815e-12 7.7528399738276600e-11 0.0000000000000000e+00  5.7189963790216662e-12 6.0391732291440871e-11 0.0000000000000000e+00  2.8040147422753543e-12 3.9610135266773722e-11 0.0000000000000000e+00  2.3707290984872561e-12 4.0522258136434922e-11 0.0000000000000000e+00  3.3094761100017162e-12 4.7532985551279948e-11 0.0000000000000000e+00  5.0818331209572955e-12 5.8802613033002861e-11 0.0000000000000000e+00  1.7261503121125061e-12 3.1172231325346248e-11 0.0000000000000000e+00  1.1029546275587122e-11 1.1348661130896200e-10 0.0000000000000000e+00  1.0735861563951151e-11 1.1116095803260236e-10 0.0000000000000000e+00  8.4042865465345938e-12 8.7823488226127576e-11 0.0000000000000000e+00  6.6288939091975483e-12 6.9922157212050801e-11 0.0000000000000000e+00  5.4817421355979649e-12 6.9419597034774464e-11 0.0000000000000000e+00  5.1690292104064711e-12 7.0096708615375493e-11 0.0000000000000000e+00  4.0836964932184123e-12 6.0346389183052155e-11 0.0000000000000000e+00  4.3921619138424665e-12 4.6800174606595841e-11 0.0000000000000000e+00  2.3198067419348458e-12 2.5137114918362255e-11 0.0000000000000000e+00  4.8888107949703603e-12 5.2602606500000252e-11 0.0000000000000000e+00  1.0544129257244956e-11 1.0860768592346972e-10 0.0000000000000000e+00  0.0000000000000000e+00 0.0000000000000000e+00 0.0000000000000000e+00  1.0555158993990167e-12 1.5537563228048998e-11 0.0000000000000000e+00  1.2089245725450336e-12 1.5287228245309922e-11 0.0000000000000000e+00  1.4444420635213489e-11 1.4191959628344126e-10 0.0000000000000000e+00  3.1680683494844663e-12 3.5506875094956923e-11 0.0000000000000000e+00  9.2872927607963634e-12 9.6589642210848984e-11 0.0000000000000000e+00  5.9375787922072219e-12 6.5436403648796742e-11 0.0000000000000000e+00  1.5866411847478896e-11 -1.6592567485724272e-10 0.0000000000000000e+00  1.4465802337703180e-11 -1.5254200601465390e-10 0.0000000000000000e+00  4.4009943185241277e-12 5.8927134525104525e-11 0.0000000000000000e+00  1.5562818346450060e-11 1.5679925241168148e-10 0.0000000000000000e+00  1.4137022688068699e-11 1.4381699009293933e-10 0.0000000000000000e+00  9.5391190281989721e-12 9.9964603842125929e-11 0.0000000000000000e+00  1.5541459085650354e-12 2.4796269218166918e-11 0.0000000000000000e+00  1.2483177586323639e-11 1.2584787173788122e-10 0.0000000000000000e+00  3.6670734656155439e-12 4.5191861117620375e-11 0.0000000000000000e+00  1.4045307423122511e-11 1.4753502352020238e-10 0.0000000000000000e+00  1.5760242434977310e-11 1.6560383762019403e-10 0.0000000000000000e+00  1.3754699238508750e-11 1.4602026635159859e-10 0.0000000000000000e+00  9.4803466073205328e-12 1.0042231119203675e-10 0.0000000000000000e+00  1.1431150761390382e-11 1.1951230456254824e-10 0.0000000000000000e+00  1.2156371625892072e-11 1.2819543828734052e-10 0.0000000000000000e+00  3.5794895505174349e-12 6.0488403912749246e-11 0.0000000000000000e+00  1.7062434230307974e-12 4.7029556920877138e-11 0.0000000000000000e+00  2.8344845888875810e-12 3.4056033703709813e-11 0.0000000000000000e+00  4.2534390631589059e-12 4.8746259626337126e-11 0.0000000000000000e+00  8.5465309207428928e-12 9.4278898215704477e-11 0.0000000000000000e+00  6.8986745993313270e-12 8.1692619813235999e-11 0.0000000000000000e+00  0.0000000000000000e+00 0.0000000000000000e+00 0.0000000000000000e+00  0.0000000000000000e+00 0.0000000000000000e+00 0.0000000000000000e+00  0.0000000000000000e+00 0.0000000000000000e+00 0.0000000000000000e+00  2.9470337400462590e-12 3.1352154897532592e-11 0.0000000000000000e+00  1.6323885647794058e-11 1.6866254074829789e-10 0.0000000000000000e+00  1.4800480443935161e-11 1.5410673286208893e-10 0.0000000000000000e+00  2.1853242752558451e-12 2.9115531469759518e-11 0.0000000000000000e+00  7.0834409860581807e-12 7.5196026026672287e-11 0.0000000000000000e+00  0.0000000000000000e+00 0.0000000000000000e+00 0.0000000000000000e+00  1.0105746252846810e-11 1.0464347393680463e-10 0.0000000000000000e+00  1.8400714299159172e-11 1.7918276743660177e-10 0.0000000000000000e+00  1.7112973101820841e-11 1.6777836585623799e-10 0.0000000000000000e+00  1.5909986766284611e-11 1.5547429551232888e-10 0.0000000000000000e+00  1.2923349952540185e-11 1.3155355646942348e-10 0.0000000000000000e+00  1.3170941860128176e-11 1.3076368725247802e-10 0.0000000000000000e+00  1.9027440786947359e-11 1.8602912443581201e-10 0.0000000000000000e+00  1.8083267660751285e-11 1.7906886373633445e-10 0.0000000000000000e+00  1.7832266062215958e-11 1.7529774246008399e-10 0.0000000000000000e+00  1.5563956228883281e-11 1.5541122522488902e-10 0.0000000000000000e+00  8.8787427579585621e-12 9.2988385315266344e-11 0.0000000000000000e+00  5.0315084814019371e-12 5.5246883606708332e-11 0.0000000000000000e+00  1.5352492365439510e-11 1.4995058992473442e-10 0.0000000000000000e+00  1.4009245511550195e-11 1.3778584045158530e-10 0.0000000000000000e+00  1.3796886795755652e-11 1.3755860284038016e-10 0.0000000000000000e+00  1.2150158521564334e-11 1.2278224279820481e-10 0.0000000000000000e+00  1.0098760253267804e-11 1.0486919412038882e-10 0.0000000000000000e+00  0.0000000000000000e+00 0.0000000000000000e+00 0.0000000000000000e+00  9.8852445916173992e-12 1.0466451603098461e-10 0.0000000000000000e+00  1.5409886359244308e-11 -1.6120427668177607e-10 0.0000000000000000e+00  1.3997899670872561e-11 -1.4805004279750544e-10 0.0000000000000000e+00  1.3207301261221954e-11 -1.4117247139307853e-10 0.0000000000000000e+00  1.6829925318476970e-11 1.6673605355210987e-10 0.0000000000000000e+00  1.5270965068265982e-11 1.5570603220251634e-10 0.0000000000000000e+00  1.6649154804491861e-11 1.6829866831625411e-10 0.0000000000000000e+00  1.4568162748416420e-11 1.4373763828442298e-10 0.0000000000000000e+00  6.6348702529023257e-12 7.7621728992816320e-11 0.0000000000000000e+00  1.3172503392002014e-11 1.3122239268824394e-10 0.0000000000000000e+00  1.7866280241625050e-12 2.0974979373157755e-11 0.0000000000000000e+00  1.6328040259608890e-11 1.6723101782285382e-10 0.0000000000000000e+00  1.6730762007400921e-11 1.6726495788510348e-10 0.0000000000000000e+00  2.1468828404046939e-12 2.2820983522003118e-11 0.0000000000000000e+00  1.6010725424411603e-11 1.5742646636913846e-10 0.0000000000000000e+00  1.6031855137550045e-11 1.5864111986092698e-10 0.0000000000000000e+00  1.4999260968326873e-11 1.4815272051413795e-10 0.0000000000000000e+00  1.3215310951463425e-11 1.3781028071458134e-10 0.0000000000000000e+00  1.3409740035335486e-11 1.3360762043683497e-10 0.0000000000000000e+00  1.2032108015089433e-11 1.2164862381204807e-10 0.0000000000000000e+00  1.2302834285645058e-11 1.2392064814302758e-10 0.0000000000000000e+00  1.0992732883344402e-11 1.1346867545856531e-10 0.0000000000000000e+00  1.4543590134874190e-11 1.5004642508608268e-10 0.0000000000000000e+00  1.2383451820823218e-11 1.2817110694983024e-10 0.0000000000000000e+00  1.2186577210100813e-12 1.3754994306634068e-11 0.0000000000000000e+00  1.6816605248148227e-11 1.6397134166375151e-10 0.0000000000000000e+00  1.3739461467816180e-11 1.4098162963501967e-10 0.0000000000000000e+00  1.4694449657785897e-11 -1.5521084407622451e-10 0.0000000000000000e+00  8.9375693885466580e-12 9.4242744350770989e-11 0.0000000000000000e+00  1.2618338048909649e-11 1.2942394892150072e-10 0.0000000000000000e+00  1.0594991551805703e-11 1.1031378706621656e-10 0.0000000000000000e+00  </DataArray> 
</PointData> 
</Piece>
</UnstructuredGrid>
</VTKFile>