<?xml version="1.0"?>
<VTKFile type="UnstructuredGrid"  version="0.1"  >
<UnstructuredGrid>
<Piece  NumberOfPoints="159" NumberOfCells="273">
<Points>
<DataArray  type="Float64"  NumberOfComponents="3"  format="ascii">0.2731261288560632 0.05508990498446354 0  0.2987534892216486 0.0315514559195245 0  0.2542832031505575 0.02753945098945488 0  0.1643803445726773 0.1320455744607671 0  0.1492568805314775 0.1320415580217508 0  0.1603049582047745 0.1432582141132765 0  0.05117158718416857 0.1453485111637968 0  0.07781664772417689 0.1514291310832305 0  0.06748659597705532 0.1295390226593013 0  0.2280996454544971 0.1360459853575518 0  0.2156311955156244 0.1428329386609274 0  0.2231136085907528 0.1473859209203777 0  1.333804793256701e-22 0.05857142857161107 0  6.634378224688247e-24 0.02928571428580012 0  0.0279792025215343 0.04239836767877547 0  0.1340123044397741 0.1326286914107143 0  0.1230391583104432 0.1450531549454454 0  0.1371397984252793 0.1487519686806741 0  0.150218103151734 0.1478553968355351 0  0.1843155603052454 0.1108413256711459 0  0.1663824338924828 0.1129032403080574 0  0.1730833955165857 0.09449623330178941 0  0.1497173826888258 0.1059683781968611 0  0.1319394991423068 0.1078314634849165 0  0.1422897452780139 0.09099997340267077 0  0.05400840127328994 0.1101453072721537 0  0.02857711430396742 0.1257840116654736 0  0.03212923437523606 0.09444183900759309 0  0.1292071081411313 0.1601792955143857 0  0.2571619134008437 0.09909300265665441 0  0.260386917385786 0.122975877827229 0  0.2739812320470117 0.1012916203917652 0  0.235428184091502 5.022269299252646e-22 0  0.2269163188185131 0.04174007266179863 0  0.2054899455083783 0.02496484704959055 0  0.1877417105387872 0.1515259415822739 0  0.1807733240461124 0.153844448527136 0  0.1810248826372428 0.1443964762812583 0  0.2473852799039755 0.1284121689043516 0  0.2592153330280947 0.1383188987129913 0  0.249046594960989 0.1431690630141054 0  0.1985016749166814 0.1136056909854771 0  0.1898023949210005 0.09526436610320455 0  0.1151044848684244 0.1585854440395076 0  0.1231197090018554 0.1724984031394002 0  0.2023158100364996 0.1500536585536553 0  0.194974551899914 0.1502531923497262 0  0.1988455873004277 0.1412267911567431 0  0.1355364517867966 0.1738834076728599 0  0.139905877414796 0.04759640521548036 0  0.1148342611122781 0.02974146163119205 0  0.1520662810732024 0.02654409823164832 0  0.2166911463437691 0.1528682099456123 0  0.2096071079204251 0.1509316448471593 0  0.1570345133722812 0.1549204031662104 0  0.1666781488701344 0.152731169266025 0  0.1709040038340192 0.1428229669895349 0  0.1385564262639938 0.1617173347943608 0  0.2741016576309132 1.881049751761821e-22 0  0.1050381454831885 0.1429640815223712 0  0.0935038753384238 0.1155179566639452 0  0.1111534765635946 0.1189096988544442 0  0.1054085070211306 0.1021550396108896 0  0.1273239957535082 4.396698313621525e-23 0  0.01613156848536263 0.1072217091765677 0  0.2166134923076307 0.131867456673073 0  0.2211741820770351 0.1228171340052522 0  0.02666792813294527 0.06797788804724472 0  0.1014355563164478 0.1290820270773653 0  0.09635231009085564 0.1596076317754221 0  0.1179504890611801 0.1314290311464303 0  0.1036145968620979 0.05738962892784293 0  0.0946638801649924 0.08157243033519376 0  0.07832912286228765 0.06126361998252861 0  0.1226328672143381 0.09257204988557952 0  0.1134552108015182 0.07678366336851544 0  0.1543500902046829 0.1644684901970893 0  0.1465339372127398 0.1576333273823408 0  0.1768519219734135 0.1335348142538968 0  0.1432541070981 0.1403428234562449 0  0.2063104190065843 0.09746667000827694 0  0.09081919077309675 0.03967547300435958 0  0.08022326702967791 0.02066126808512416 0  0.1445093184162942 0.1682503760742873 0  0.02189321419890762 0.02003654547475605 0  0.2438008333809597 0.1110864942032515 0  0.2788579102694214 0.08311426907086547 0  0.2525338791625734 0.07648891049395537 0  0.145931715174952 0.1790663209943996 0  0.09153219842823263 0.1470144039328319 0  0.162910430003803 0.1664684656256651 0  0.1583987151779087 0.1722631454351573 0  0.1581423118017058 0.09342882366725143 0  0.1742197252835808 0.15715869474974 0  0.1682222986673531 0.1613971801805478 0  0.141736446858597 0.1196357987114066 0  0.1800210602474159 0.1220030590073661 0  0.08753964883966696 0.1327573204562999 0  0.09377624077125973 3.876465272695504e-24 0  0.1900477797347224 0.1434391971906369 0  0.2340561157761003 0.1250065375037884 0  0.1746673311104445 0.1499058667128185 0  0.2092635918849112 0.1231268832076986 0  0.2148753433554383 0.1110803149637674 0  0.1358442378399173 0.07184108346676206 0  0.1970871354908505 0.07638846355853383 0  0.151233858076757 0.1723680889843366 0  0.1692145662991468 0.1236342341110965 0  0.05089253545930358 0.127821830471922 0  0.07652683510600761 0.1136650038849048 0  8.422292417678186e-23 0.08785714285737878 0  0.2311279083999336 0.1437548102092585 0  0.1777139420741175 0.0396045953250584 0  0.1570575662001217 0.05573317861368544 0  0.156420982989432 0.1212210159634536 0  0.2067858933256304 0.144226989450039 0  0.2383614265649247 0.13687094635487 0  0.1547844879126891 0.178656207771761 0  0.1222505544706116 0.05689437545392895 0  0.2077117247614207 0.1359897526140183 0  0.1990750866549328 0.1296246053189489 0  0.05279844271229174 0.07413250301440659 0  0.05175515384126664 0.0516122462317227 0  0.3141745521465447 5.713063607395482e-22 0  0.1595404795408847 0.07838706818973569 0  0.2234150974217223 0.1558215752574715 0  0.2416909641906889 0.09508518387110867 0  0.05608777568718212 0.09204872273019343 0  0.1619809500944625 0.1601561656468233 0  0.2000562665657617 0.05138770670484411 0  0.1769189602247943 0.06290611043102802 0  0.1620856860351972 8.830957097875162e-23 0  0.2137660687004204 0.0831188443431332 0  0.225976144244884 0.09968866301799081 0  0.1981052433264291 1.432570401611191e-22 0  0.07008609373718398 0.03857317820709573 0  0.2304167272897424 0.1515905924416104 0  0.2387314728857135 0.1472708319407655 0  0.2312941795386192 0.0833043356150074 0  0.2179044071894408 0.06599408113416357 0  5.836121105098361e-23 2.021753581660559e-24 0  0.03015443760436003 5.291571704415107e-24 0  0.228067012694994 0.1141613407032509 0  0.1874525991146257 0.1304389759441043 0  0.07522195435026935 0.08286783269859582 0  0.06140001986583606 7.862210736851412e-24 0  0.04981346141662885 0.02287350331054541 0  0.2478063432563135 0.0515601689055725 0  0.1261683936836368 0.1203748977629908 0  0.1851521215389651 0.1377443717476079 0  0.118562371642875 0.1083965702435227 0  0.1794270908410628 0.01748473622440809 0  1.370565873096683e-22 0.1171428571431897 0  0.1795151946017949 0.08060579471734428 0  0.1927086356098598 0.1364147629194882 0  0.2356201194719126 0.06536913576446549 0  0.18980401948156 0.1213828183439556 0  0.08823486253413296 0.09873320390025866 0  0.07364209411992793 0.09691325733884038 0  </DataArray>
</Points>
<Cells>
<DataArray  type="UInt32"  Name="connectivity"  format="ascii">0 1 2  3 4 5  6 7 8  9 10 11  12 13 14  15 16 17  18 4 5  19 20 21  22 23 24  25 26 27  28 16 17  29 30 31  32 33 34  35 36 37  38 39 40  19 41 42  28 43 44  32 33 2  45 46 47  28 48 44  49 50 51  52 53 10  54 55 5  3 56 5  28 48 57  58 1 2  59 16 43  60 61 62  63 50 51  28 16 43  26 27 64  9 65 66  12 14 67  60 61 68  59 69 43  59 16 70  71 72 73  74 23 24  74 62 75  54 76 77  3 56 78  15 17 79  80 41 42  50 81 82  83 48 57  9 10 65  13 14 84  29 30 85  29 86 87  29 86 31  83 88 48  7 69 89  71 72 75  18 4 79  18 17 77  18 54 5  90 91 76  20 21 92  93 94 55  83 76 77  72 62 75  22 23 95  19 20 96  7 8 97  98 50 82  59 70 68  22 20 92  17 77 57  56 55 5  35 37 99  9 100 66  36 37 101  56 37 78  18 54 77  102 41 103  15 16 70  38 30 85  38 39 30  74 104 75  46 47 99  98 63 50  105 80 42  83 76 106  20 96 107  6 26 108  60 97 109  110 27 67  83 88 106  15 4 95  9 11 111  112 51 113  49 51 113  3 4 114  45 47 115  46 35 99  52 10 11  80 41 103  0 86 87  38 40 116  53 10 115  117 88 106  71 50 118  102 119 120  28 17 57  121 27 67  121 67 122  19 21 42  25 26 108  91 76 106  58 123 1  102 119 65  71 73 81  15 4 79  124 104 24  22 20 114  110 12 67  74 104 24  119 47 120  125 52 11  124 104 113  49 50 118  29 87 126  93 55 101  25 27 127  90 76 128  8 97 109  105 129 130  63 131 51  94 55 128  105 80 132  80 133 132  134 32 34  112 129 34  119 10 65  14 67 122  91 117 106  135 73 81  6 8 108  125 136 11  137 40 116  56 55 101  138 87 126  105 129 139  137 116 111  38 85 100  121 73 122  80 103 133  102 120 41  121 27 127  140 13 84  61 70 68  140 141 84  142 85 133  32 58 2  71 50 81  143 78 96  7 97 89  56 37 101  121 73 144  141 145 146  18 17 79  0 87 147  15 95 148  72 73 144  0 2 147  22 95 114  4 95 114  37 78 149  110 27 64  142 85 100  33 2 147  3 78 107  61 62 150  36 93 101  49 104 113  112 34 151  135 73 122  152 26 64  112 129 130  124 24 92  74 23 150  104 75 118  124 21 153  60 97 68  53 45 115  119 47 115  135 146 82  54 76 128  47 120 154  141 146 84  78 96 107  119 10 115  54 55 128  145 146 82  135 146 122  33 139 155  14 146 122  25 8 109  9 116 111  152 110 64  120 41 156  143 120 156  23 95 148  22 24 92  124 130 153  131 134 151  59 97 89  59 97 68  121 127 144  33 129 139  3 114 107  112 130 113  85 133 126  145 98 82  124 130 113  124 21 92  138 139 132  105 139 132  33 147 155  59 69 89  60 109 157  25 8 108  74 62 150  143 78 149  137 136 111  72 157 144  138 133 132  21 42 153  138 87 155  14 146 84  33 129 34  105 42 153  9 116 100  25 158 109  143 120 154  105 130 153  158 157 144  83 77 57  138 139 155  158 127 144  61 150 148  112 51 151  60 62 157  94 90 128  49 104 118  158 109 157  102 103 66  20 114 107  72 62 157  19 41 156  25 158 127  71 75 118  142 103 133  143 96 156  136 11 111  23 150 148  87 147 155  38 116 100  142 100 66  37 99 149  102 65 66  47 99 154  131 51 151  61 70 148  19 96 156  142 103 66  135 81 82  15 70 148  134 34 151  29 85 126  99 149 154  138 133 126  143 149 154  </DataArray>
<DataArray  type="UInt32"  Name="offsets"  format="ascii">3 6 9 12 15 18 21 24 27 30 33 36 39 42 45 48 51 54 57 60 63 66 69 72 75 78 81 84 87 90 93 96 99 102 105 108 111 114 117 120 123 126 129 132 135 138 141 144 147 150 153 156 159 162 165 168 171 174 177 180 183 186 189 192 195 198 201 204 207 210 213 216 219 222 225 228 231 234 237 240 243 246 249 252 255 258 261 264 267 270 273 276 279 282 285 288 291 294 297 300 303 306 309 312 315 318 321 324 327 330 333 336 339 342 345 348 351 354 357 360 363 366 369 372 375 378 381 384 387 390 393 396 399 402 405 408 411 414 417 420 423 426 429 432 435 438 441 444 447 450 453 456 459 462 465 468 471 474 477 480 483 486 489 492 495 498 501 504 507 510 513 516 519 522 525 528 531 534 537 540 543 546 549 552 555 558 561 564 567 570 573 576 579 582 585 588 591 594 597 600 603 606 609 612 615 618 621 624 627 630 633 636 639 642 645 648 651 654 657 660 663 666 669 672 675 678 681 684 687 690 693 696 699 702 705 708 711 714 717 720 723 726 729 732 735 738 741 744 747 750 753 756 759 762 765 768 771 774 777 780 783 786 789 792 795 798 801 804 807 810 813 816 819 </DataArray>
<DataArray  type="UInt8"  Name="types"  format="ascii">5 5 5 5 5 5 5 5 5 5 5 5 5 5 5 5 5 5 5 5 5 5 5 5 5 5 5 5 5 5 5 5 5 5 5 5 5 5 5 5 5 5 5 5 5 5 5 5 5 5 5 5 5 5 5 5 5 5 5 5 5 5 5 5 5 5 5 5 5 5 5 5 5 5 5 5 5 5 5 5 5 5 5 5 5 5 5 5 5 5 5 5 5 5 5 5 5 5 5 5 5 5 5 5 5 5 5 5 5 5 5 5 5 5 5 5 5 5 5 5 5 5 5 5 5 5 5 5 5 5 5 5 5 5 5 5 5 5 5 5 5 5 5 5 5 5 5 5 5 5 5 5 5 5 5 5 5 5 5 5 5 5 5 5 5 5 5 5 5 5 5 5 5 5 5 5 5 5 5 5 5 5 5 5 5 5 5 5 5 5 5 5 5 5 5 5 5 5 5 5 5 5 5 5 5 5 5 5 5 5 5 5 5 5 5 5 5 5 5 5 5 5 5 5 5 5 5 5 5 5 5 5 5 5 5 5 5 5 5 5 5 5 5 5 5 5 5 5 5 5 5 5 5 5 5 5 5 5 5 5 5 5 5 5 5 5 5 5 5 5 5 5 5 </DataArray>
</Cells>
<PointData  Vectors="d"> 
<DataArray  type="Float64"  Name="d"  NumberOfComponents="3" format="ascii">4.6390194589153955e-09 -6.6351824639960157e-09 0.0000000000000000e+00  3.6905964168327298e-09 -4.6753668401383453e-09 0.0000000000000000e+00  1.8765118446147444e-09 -2.7227006206359224e-09 0.0000000000000000e+00  5.1030662203611791e-10 -8.7403523893816676e-10 0.0000000000000000e+00  4.2387546713492318e-10 -7.0472882044910760e-10 0.0000000000000000e+00  3.1776522211723225e-10 -5.3516801317726954e-10 0.0000000000000000e+00  1.0692928889629769e-10 -1.1524413229028426e-10 0.0000000000000000e+00  1.5588804776971041e-10 -1.7223355356811112e-10 0.0000000000000000e+00  1.5429443162473697e-10 -2.0352279938921498e-10 0.0000000000000000e+00  2.3275054804333654e-09 -4.6218354577222939e-09 0.0000000000000000e+00  9.5385559877903974e-10 -1.8597638315242799e-09 0.0000000000000000e+00  1.0030139526755689e-09 -2.0511845468610623e-09 0.0000000000000000e+00  0.0000000000000000e+00 0.0000000000000000e+00 0.0000000000000000e+00  0.0000000000000000e+00 0.0000000000000000e+00 0.0000000000000000e+00  3.8128209516649109e-11 -5.9382879632923211e-11 0.0000000000000000e+00  3.5283698792244513e-10 -5.6461059076510993e-10 0.0000000000000000e+00  2.5357058307706120e-10 -3.7238824147854932e-10 0.0000000000000000e+00  2.4912484340151435e-10 -3.8134521226450380e-10 0.0000000000000000e+00  2.5855242087354706e-10 -4.1833720378818302e-10 0.0000000000000000e+00  1.1813773952546343e-09 -2.0562193219002179e-09 0.0000000000000000e+00  8.0378287728739435e-10 -1.3770317402551079e-09 0.0000000000000000e+00  1.0745108249705851e-09 -1.8280082630189128e-09 0.0000000000000000e+00  6.4453700540475387e-10 -1.0833800272732442e-09 0.0000000000000000e+00  4.7113191421364267e-10 -7.7448767608932404e-10 0.0000000000000000e+00  6.1227244220969917e-10 -1.0208488799483780e-09 0.0000000000000000e+00  1.2724145145942279e-10 -1.7982113427911455e-10 0.0000000000000000e+00  6.2837295794451682e-11 -7.8069699716169997e-11 0.0000000000000000e+00  7.1479425178615145e-11 -1.0337733344240458e-10 0.0000000000000000e+00  1.8426975003074328e-10 -2.4613353766496246e-10 0.0000000000000000e+00  5.7195149534685074e-09 -9.6530715357075409e-09 0.0000000000000000e+00  6.4651934549582678e-09 -1.2217269411607972e-08 0.0000000000000000e+00  7.6299458824118262e-09 -1.2504048536805366e-08 0.0000000000000000e+00  0.0000000000000000e+00 0.0000000000000000e+00 0.0000000000000000e+00  1.8556478189147147e-09 -2.8848654739457691e-09 0.0000000000000000e+00  8.1535184734073340e-10 -1.2886684415741232e-09 0.0000000000000000e+00  0.0000000000000000e+00 0.0000000000000000e+00 0.0000000000000000e+00  0.0000000000000000e+00 0.0000000000000000e+00 0.0000000000000000e+00  2.9482287646967827e-10 -5.2019936292498247e-10 0.0000000000000000e+00  4.7288061512927352e-09 -9.2970294874014420e-09 0.0000000000000000e+00  6.1566416221952022e-09 -1.2988462221888963e-08 0.0000000000000000e+00  4.3983974424760297e-09 -9.6103325820775668e-09 0.0000000000000000e+00  1.5603392541917543e-09 -2.7631298777119544e-09 0.0000000000000000e+00  1.4965040464491473e-09 -2.5653388778246541e-09 0.0000000000000000e+00  1.9129394158463488e-10 -2.3708972520887988e-10 0.0000000000000000e+00  1.4455224042939233e-10 -1.4485399527081718e-10 0.0000000000000000e+00  0.0000000000000000e+00 0.0000000000000000e+00 0.0000000000000000e+00  0.0000000000000000e+00 0.0000000000000000e+00 0.0000000000000000e+00  5.4111649352209738e-10 -9.9549264670114091e-10 0.0000000000000000e+00  1.1414530173319166e-10 -1.2543632252837942e-10 0.0000000000000000e+00  4.5176688788003859e-10 -7.4508825617810913e-10 0.0000000000000000e+00  1.9350508450534396e-10 -3.1696900009254593e-10 0.0000000000000000e+00  3.4150092612388171e-10 -5.5999631694121118e-10 0.0000000000000000e+00  0.0000000000000000e+00 0.0000000000000000e+00 0.0000000000000000e+00  0.0000000000000000e+00 0.0000000000000000e+00 0.0000000000000000e+00  1.6613514357674887e-10 -2.6958346700749175e-10 0.0000000000000000e+00  1.5086203803183550e-10 -2.5482841580005572e-10 0.0000000000000000e+00  3.3294959867311177e-10 -5.7513820016367556e-10 0.0000000000000000e+00  1.6380881353124414e-10 -2.2924165357966601e-10 0.0000000000000000e+00  0.0000000000000000e+00 0.0000000000000000e+00 0.0000000000000000e+00  2.2553529286374419e-10 -3.1027003642037841e-10 0.0000000000000000e+00  2.4855003507618373e-10 -3.7500696155527800e-10 0.0000000000000000e+00  3.1416173259335684e-10 -4.8960706591521919e-10 0.0000000000000000e+00  3.1781960640584799e-10 -5.0432225182383282e-10 0.0000000000000000e+00  0.0000000000000000e+00 0.0000000000000000e+00 0.0000000000000000e+00  3.5731679290250344e-11 -4.8811641665623077e-11 0.0000000000000000e+00  1.7403033850058413e-09 -3.3017847374903813e-09 0.0000000000000000e+00  2.4351350919946304e-09 -4.5330803407501156e-09 0.0000000000000000e+00  5.1213451925726424e-11 -7.7808536155223540e-11 0.0000000000000000e+00  2.5159643996477741e-10 -3.6963493089804661e-10 0.0000000000000000e+00  1.7262953109130300e-10 -1.8593036874286292e-10 0.0000000000000000e+00  2.9985528758999041e-10 -4.5953025129067901e-10 0.0000000000000000e+00  2.6674781543013802e-10 -4.3404188228895711e-10 0.0000000000000000e+00  2.6676257914456707e-10 -4.2604384591400622e-10 0.0000000000000000e+00  1.7447142424106865e-10 -2.7799379146405986e-10 0.0000000000000000e+00  4.3353975860300615e-10 -7.0971806448772164e-10 0.0000000000000000e+00  3.6501720863918633e-10 -5.9550144304909389e-10 0.0000000000000000e+00  8.5385951310129629e-11 -1.2954748394147137e-10 0.0000000000000000e+00  1.7367244029104034e-10 -2.6446930542391220e-10 0.0000000000000000e+00  5.7744639379548521e-10 -1.0107703965288583e-09 0.0000000000000000e+00  3.2350576686685721e-10 -5.2211153643588657e-10 0.0000000000000000e+00  2.0945575284696230e-09 -3.6196471909470905e-09 0.0000000000000000e+00  1.6031173143039558e-10 -2.5969670180370256e-10 0.0000000000000000e+00  7.2475116420239872e-11 -1.1704042882215082e-10 0.0000000000000000e+00  1.0853070531371420e-10 -1.4634050853164161e-10 0.0000000000000000e+00  1.4831795901400082e-11 -2.3279714345649254e-11 0.0000000000000000e+00  4.5592654678392756e-09 -8.2085420169037821e-09 0.0000000000000000e+00  7.1159194402112544e-09 -1.0733706818847399e-08 0.0000000000000000e+00  4.5353813029254869e-09 -7.1730546016476950e-09 0.0000000000000000e+00  5.3945303482749618e-11 -5.7389863868914091e-11 0.0000000000000000e+00  1.8856916549626011e-10 -2.3512805908023356e-10 0.0000000000000000e+00  0.0000000000000000e+00 0.0000000000000000e+00 0.0000000000000000e+00  0.0000000000000000e+00 0.0000000000000000e+00 0.0000000000000000e+00  8.1124416463973961e-10 -1.3681481612437926e-09 0.0000000000000000e+00  0.0000000000000000e+00 0.0000000000000000e+00 0.0000000000000000e+00  0.0000000000000000e+00 0.0000000000000000e+00 0.0000000000000000e+00  4.8319325236646547e-10 -8.0043187992024210e-10 0.0000000000000000e+00  8.8518493307331634e-10 -1.5488349112398549e-09 0.0000000000000000e+00  2.0354861979186374e-10 -2.8029623592053563e-10 0.0000000000000000e+00  0.0000000000000000e+00 0.0000000000000000e+00 0.0000000000000000e+00  3.4590494800464317e-10 -6.2287067019892383e-10 0.0000000000000000e+00  3.3927105354555937e-09 -6.4810967464775263e-09 0.0000000000000000e+00  1.6205096238967729e-10 -2.8085996360728386e-10 0.0000000000000000e+00  1.7401632690453074e-09 -3.1822730334301721e-09 0.0000000000000000e+00  2.3619801387019339e-09 -4.2227410307248688e-09 0.0000000000000000e+00  5.3221824520139158e-10 -8.8143489263729136e-10 0.0000000000000000e+00  1.7004346619514160e-09 -2.8426081346633913e-09 0.0000000000000000e+00  5.2336627529955563e-11 -7.0274445172619017e-11 0.0000000000000000e+00  6.9425589276470275e-10 -1.1980663934745590e-09 0.0000000000000000e+00  1.1415335756769139e-10 -1.4586634926937244e-10 0.0000000000000000e+00  1.9167894770586167e-10 -2.7982848100268803e-10 0.0000000000000000e+00  0.0000000000000000e+00 0.0000000000000000e+00 0.0000000000000000e+00  2.0526708889709416e-09 -4.2756975958317534e-09 0.0000000000000000e+00  7.7070024508054991e-10 -1.2574069412336517e-09 0.0000000000000000e+00  6.8855721732070717e-10 -1.1394131918851777e-09 0.0000000000000000e+00  5.9015061197175653e-10 -9.9991959665019611e-10 0.0000000000000000e+00  5.1162294972633262e-10 -9.6763314979368013e-10 0.0000000000000000e+00  3.3181223753302511e-09 -6.7897150424891157e-09 0.0000000000000000e+00  0.0000000000000000e+00 0.0000000000000000e+00 0.0000000000000000e+00  3.7107098274043992e-10 -6.0997560306135454e-10 0.0000000000000000e+00  1.0783155926240312e-09 -2.0189973757578845e-09 0.0000000000000000e+00  1.0962468283338109e-09 -1.9918267169241037e-09 0.0000000000000000e+00  1.1462537554445469e-10 -1.7618566325544048e-10 0.0000000000000000e+00  8.9246430966836575e-11 -1.4007206100517146e-10 0.0000000000000000e+00  0.0000000000000000e+00 0.0000000000000000e+00 0.0000000000000000e+00  8.4024980365262817e-10 -1.4069706326022811e-09 0.0000000000000000e+00  0.0000000000000000e+00 0.0000000000000000e+00 0.0000000000000000e+00  4.2568167870043284e-09 -7.2311129581987685e-09 0.0000000000000000e+00  1.3248416266543558e-10 -1.9820627202087548e-10 0.0000000000000000e+00  7.5941398020268708e-11 -1.2335151372514151e-10 0.0000000000000000e+00  1.4112206426786259e-09 -2.2877559809508704e-09 0.0000000000000000e+00  1.0661547013280988e-09 -1.7670556128890304e-09 0.0000000000000000e+00  0.0000000000000000e+00 0.0000000000000000e+00 0.0000000000000000e+00  2.4033412009187876e-09 -4.0365844540618331e-09 0.0000000000000000e+00  3.1522205623155917e-09 -5.4811721321947552e-09 0.0000000000000000e+00  0.0000000000000000e+00 0.0000000000000000e+00 0.0000000000000000e+00  1.0496084185235751e-10 -1.6788094104276303e-10 0.0000000000000000e+00  1.2093902420844235e-09 -2.6248200583507444e-09 0.0000000000000000e+00  2.6483361033659823e-09 -5.8128600512067702e-09 0.0000000000000000e+00  3.3336511418631202e-09 -5.5335237172862985e-09 0.0000000000000000e+00  2.3042459060643222e-09 -3.7446442573861634e-09 0.0000000000000000e+00  0.0000000000000000e+00 0.0000000000000000e+00 0.0000000000000000e+00  0.0000000000000000e+00 0.0000000000000000e+00 0.0000000000000000e+00  3.1671896925825763e-09 -5.7655909998322640e-09 0.0000000000000000e+00  7.9996213674523952e-10 -1.4240603760802930e-09 0.0000000000000000e+00  1.8888987633039870e-10 -2.9430523037396876e-10 0.0000000000000000e+00  0.0000000000000000e+00 0.0000000000000000e+00 0.0000000000000000e+00  4.1774220105782857e-11 -6.6302790136017407e-11 0.0000000000000000e+00  3.0749021331825964e-09 -4.6629317150293918e-09 0.0000000000000000e+00  3.8242368987178344e-10 -6.1447471621195232e-10 0.0000000000000000e+00  5.3073836623785772e-10 -9.4438051069633408e-10 0.0000000000000000e+00  3.7971850853968624e-10 -6.1111404741752736e-10 0.0000000000000000e+00  3.7250962415517710e-10 -6.0175074020215964e-10 0.0000000000000000e+00  0.0000000000000000e+00 0.0000000000000000e+00 0.0000000000000000e+00  1.2323355982211296e-09 -2.0740012691749756e-09 0.0000000000000000e+00  6.7252691626570583e-10 -1.2147521725221249e-09 0.0000000000000000e+00  3.0881994338948741e-09 -4.9038718316070618e-09 0.0000000000000000e+00  1.1083874940430356e-09 -1.9636812405519897e-09 0.0000000000000000e+00  2.4171485987022557e-10 -3.7479896949989580e-10 0.0000000000000000e+00  1.8769302709218897e-10 -2.8517633426483972e-10 0.0000000000000000e+00  </DataArray> 
</PointData> 
</Piece>
</UnstructuredGrid>
</VTKFile>