<?xml version="1.0"?>
<VTKFile type="UnstructuredGrid"  version="0.1"  >
<UnstructuredGrid>
<Piece  NumberOfPoints="155" NumberOfCells="271">
<Points>
<DataArray  type="Float64"  NumberOfComponents="3"  format="ascii">0.5630346079927567 0.209917180410645 0  0.5640185494322699 0.2000655283044233 0  0.5579042535351335 0.2035908473405988 0  0.5630800184264586 0.1901546588417695 0  0.5696505915004255 0.1962964769510917 0  0.5695473402387834 0.2038616732218115 0  0.5580392854969352 0.1965020951215892 0  0.575223978126574 0.200303365851615 0  0.5821820535741939 0.1967874991379707 0  0.5820487225462416 0.204171855051173 0  0.5072006578576423 0.200029923732638 0  0.4996995526497172 0.1971370601014287 0  0.4996380770749046 0.2040658569727251 0  0.5222264020389744 0.2000341406575553 0  0.5147215183636982 0.1971434267048095 0  0.5146453331780027 0.204064667929523 0  0.5372496631481628 0.2000408283947356 0  0.5297472956856325 0.1971496856018717 0  0.5296547460111506 0.2040641249193182 0  0.5519850627366791 0.2001634010011164 0  0.544759706137914 0.1971590341975476 0  0.5446299971428407 0.2040780869335312 0  0.5332260331858111 0.190136231664783 0  0.5257536930319398 0.1901307873331211 0  0.548158356034117 0.1901454416394535 0  0.5406937836198669 0.1901413003299419 0  0.5182791016459801 0.1901247005568355 0  0.5108016080608895 0.1901185474911636 0  0.5033225878246704 0.1901119720921714 0  0.4958412066019947 0.1901054149579478 0  0.5704824802164696 0.2099219627689923 0  0.570512953664595 0.1901467993574502 0  0.5779501162816764 0.1901400144042779 0  0.5751727446358671 0.1946913009854626 0  0.5555591400307719 0.2099216062784057 0  0.5071270852543751 0.2056719779362619 0  0.5221347343698561 0.2056683990616049 0  0.5371410610936713 0.2056678610776281 0  0.55213193856256 0.2056641526927426 0  0.5556159276931795 0.1901483291490121 0  0.5750726829479408 0.2056282552254061 0  0.5373327331371155 0.1944073752766678 0  0.522291841321309 0.1943963211645968 0  0.5520694892398645 0.1946924866575006 0  0.5072534472854585 0.1943861162984544 0  0.5107156999878991 0.2099411903146242 0  0.5181935782070216 0.2099373953381193 0  0.5406182543088257 0.2099270162752109 0  0.5480900363149476 0.2099241724372962 0  0.4957576584772949 0.209949040303543 0  0.5032371185435666 0.2099450836603637 0  0.5256698283568471 0.2099337178268301 0  0.5331449070244175 0.2099303116654983 0  0.5779337389237861 0.209925737639382 0  0.5853802608603897 0.2099321799686807 0  0.5025078582608563 0.2484148593726501 0  0.5041256128127116 0.2634252204217961 0  0.4872772661610176 0.2510768873870016 0  0.521254822181068 0.236248789594134 0  0.5350406166703788 0.2414032760693088 0  0.5185870131349308 0.2463649968452065 0  0.5169067504115928 0.2571218681644832 0  0.4789421366335264 0.2371560444813207 0  0.4901415588778775 0.2394737620772892 0  0.5815334694593718 0.2563215243747942 0  0.559595399128877 0.2625142107071879 0  0.5671833272447189 0.2475437112104939 0  0.5382458355604414 0.2701588960786506 0  0.5489454182592556 0.2837722957301858 0  0.4854076740557917 0.2693241513397165 0  0.4995345930776425 0.2192298129362407 0  0.5443274121234242 0.167799683436646 0  0.5352059355666549 0.1566794003209083 0  0.5523190573100951 0.1577774540241832 0  0.4690174084265165 0.2234233044089459 0  0.4654451481904213 0.2342237481226705 0  0.4770048706555283 0.2273504292100008 0  0.4720336513969891 0.2448305171384554 0  0.5691995475888139 0.2220957148489527 0  0.560411142677625 0.2167347523986611 0  0.5671888931721442 0.2151318871957263 0  0.499624503058103 0.2307670938494166 0  0.5067821410244903 0.2246346946769185 0  0.5126447984007214 0.2310475925957045 0  0.5669530617369166 0.1613609396148227 0  0.5833537040724623 0.1611364671086718 0  0.5734420052453497 0.1691376018702172 0  0.5591321985482249 0.2252887310404913 0  0.5522475333466211 0.2165724535397713 0  0.5451934030293929 0.2554673023004733 0  0.536871414883712 0.2275421393872901 0  0.5286472936172553 0.2302350969860085 0  0.5458608129496003 0.2323603674734332 0  0.5808114907996883 0.175191921954221 0  0.5704392934973205 0.17707224439386 0  0.5746434406069474 0.1837154092616974 0  0.5473013659322041 0.2233322740304147 0  0.5368533723486756 0.2180221390515377 0  0.5447921603272337 0.2156652104703176 0  0.5743060168919198 0.2324378631688394 0  0.5803205874259244 0.2219627704690717 0  0.5087153595488628 0.2394682236219416 0  0.5301985614046049 0.2565996587773586 0  0.5220136985128442 0.1814657420130752 0  0.5268195364112418 0.2223364705191103 0  0.56805486099594 0.2847817058653169 0  0.5293690842395163 0.2936737053859642 0  0.5211393838028539 0.2710058516341486 0  0.5072342995801781 0.2805343342074098 0  0.5290289204563791 0.2154066938214196 0  0.5153324981696847 0.2227916504831029 0  0.5217580817265862 0.216041052721302 0  0.5633829912346644 0.2365983566293257 0  0.5599270993404328 0.1766192312713875 0  0.5667654058465352 0.1841802903585222 0  0.5770218783203365 0.2703155115234966 0  0.5507269414363057 0.2416607189408214 0  0.5743488936070066 0.2157342684322611 0  0.5594010738981706 0.1843840907383827 0  0.553667136345351 0.2322149306986984 0  0.4912943372617172 0.2170548389673933 0  0.5078789797949079 0.2170549593569921 0  0.5146831644544264 0.2155414848321351 0  0.5070334403962494 0.1827802239035744 0  0.5211292801080689 0.2284945887928506 0  0.5564624653046166 0.251520439202959 0  0.5370345458085243 0.182695804789882 0  0.5518421649275828 0.1827386593656973 0  0.4872574989745602 0.2307657087123237 0  0.514519263008029 0.1838827522725341 0  0.5294597810092919 0.183605855994322 0  0.5657081267230161 0.1709000788258938 0  0.5298517412698956 0.1762196414294164 0  0.532040044362577 0.1674458964509809 0  0.4926522096935695 0.2245258421552701 0  0.5144826547669882 0.1756417316609382 0  0.5665848294299282 0.2290289494341869 0  0.556573091706778 0.1676126825644084 0  0.4848967065648827 0.2228489413856578 0  0.4844828247815865 0.2158679136201349 0  0.4999750937436839 0.2392933574924946 0  0.5889249849907743 0.2178038282274919 0  0.5814641580102138 0.2151817502883696 0  0.5219074295020795 0.1623028892145567 0  0.5219859543667138 0.1715044472857055 0  0.5443703142882 0.17844389042625 0  0.5375585953811624 0.1745359677202665 0  0.5512984252258575 0.1746181147858072 0  0.5063731330185665 0.1742798299276073 0  0.4920754495582776 0.1827686756590397 0  0.4995634814265514 0.1850129159820868 0  0.5444026592956562 0.1853965545282137 0  0.511930162726149 0.1673509713754259 0  0.4770419734178477 0.2183631502503573 0  0.4995404221887789 0.1784152578186838 0  </DataArray>
</Points>
<Cells>
<DataArray  type="UInt32"  Name="connectivity"  format="ascii">0 1 2  3 1 4  0 1 5  3 1 6  7 8 9  10 11 12  13 14 15  16 17 18  19 20 21  16 20 21  13 17 18  10 14 15  22 23 17  24 25 20  26 27 14  28 29 11  0 30 5  31 3 4  32 8 33  34 0 2  7 8 33  10 12 35  13 15 36  16 18 37  19 21 38  16 21 37  13 18 36  10 15 35  3 39 6  7 9 40  22 17 41  23 17 42  24 20 43  13 17 42  25 20 41  16 17 41  19 20 43  16 20 41  27 14 44  28 11 44  26 14 42  10 11 44  10 14 44  13 14 42  45 46 15  47 48 21  49 50 12  51 52 18  19 2 6  53 54 9  1 2 6  48 21 38  45 15 35  50 12 35  51 18 36  52 18 37  47 21 37  46 15 36  7 4 5  1 4 5  53 9 40  19 6 43  32 31 33  30 53 40  50 45 35  52 47 37  46 51 36  48 34 38  39 24 43  25 22 41  27 28 44  23 26 42  39 6 43  19 2 38  34 2 38  30 5 40  31 4 33  7 4 33  7 5 40  55 56 57  58 59 60  55 61 60  62 63 57  64 65 66  67 65 68  69 56 57  49 50 70  71 72 73  74 75 76  62 57 77  78 79 80  81 82 83  84 85 86  87 79 88  67 65 89  90 59 91  90 59 92  93 94 95  96 97 98  87 96 88  99 100 78  55 101 60  59 102 60  90 96 97  55 61 56  23 26 103  87 78 79  90 104 97  105 65 68  67 106 107  108 69 56  93 85 86  104 97 109  62 75 76  110 104 111  58 59 91  99 66 112  113 94 114  64 65 115  108 106 107  116 59 89  52 47 97  81 101 83  100 78 117  113 118 114  87 96 119  116 59 92  49 70 120  50 70 121  67 106 68  90 96 92  34 0 79  110 122 111  27 28 123  110 104 124  116 112 125  25 22 126  39 24 127  61 107 102  81 63 128  26 103 129  23 103 130  96 92 119  50 45 121  66 112 125  105 65 115  93 94 86  113 94 131  132 126 130  90 104 91  71 72 133  81 134 128  67 107 102  58 101 83  135 123 129  87 78 136  47 97 98  52 97 109  71 73 137  138 120 139  113 127 118  110 121 122  62 63 128  26 27 129  22 23 130  3 39 118  81 63 140  62 76 128  81 101 140  54 141 142  45 46 122  62 75 77  61 102 60  138 76 128  100 117 142  143 72 133  34 79 88  132 103 144  27 123 129  135 103 144  138 120 134  46 51 111  48 34 88  22 126 130  0 79 80  61 56 107  110 121 82  84 73 137  39 127 118  71 145 146  71 145 147  135 123 148  132 126 146  47 48 98  31 3 114  45 121 122  29 149 150  28 123 150  30 53 117  113 127 147  25 126 151  24 127 151  51 52 109  32 31 95  132 103 130  132 133 144  59 89 102  99 78 136  58 101 60  71 146 133  0 30 80  135 103 129  135 152 144  71 147 137  81 70 134  81 70 82  138 153 139  53 54 142  46 122 111  116 89 125  65 66 125  3 118 114  70 120 134  113 137 131  70 121 82  48 88 98  84 137 131  51 111 109  143 133 144  31 114 95  87 112 136  87 112 119  30 117 80  100 141 142  53 117 142  55 63 140  28 29 150  143 152 144  110 82 83  55 101 140  24 25 151  108 56 107  74 153 76  138 153 76  154 123 148  135 148 152  55 63 57  116 112 119  154 149 150  154 123 150  145 126 146  145 127 147  132 146 133  67 89 102  145 126 151  99 112 136  145 127 151  113 147 137  65 89 125  96 88 98  104 111 109  78 117 80  94 114 95  138 134 128  94 86 131  104 91 124  110 124 83  116 92 119  84 86 131  58 124 83  58 91 124  </DataArray>
<DataArray  type="UInt32"  Name="offsets"  format="ascii">3 6 9 12 15 18 21 24 27 30 33 36 39 42 45 48 51 54 57 60 63 66 69 72 75 78 81 84 87 90 93 96 99 102 105 108 111 114 117 120 123 126 129 132 135 138 141 144 147 150 153 156 159 162 165 168 171 174 177 180 183 186 189 192 195 198 201 204 207 210 213 216 219 222 225 228 231 234 237 240 243 246 249 252 255 258 261 264 267 270 273 276 279 282 285 288 291 294 297 300 303 306 309 312 315 318 321 324 327 330 333 336 339 342 345 348 351 354 357 360 363 366 369 372 375 378 381 384 387 390 393 396 399 402 405 408 411 414 417 420 423 426 429 432 435 438 441 444 447 450 453 456 459 462 465 468 471 474 477 480 483 486 489 492 495 498 501 504 507 510 513 516 519 522 525 528 531 534 537 540 543 546 549 552 555 558 561 564 567 570 573 576 579 582 585 588 591 594 597 600 603 606 609 612 615 618 621 624 627 630 633 636 639 642 645 648 651 654 657 660 663 666 669 672 675 678 681 684 687 690 693 696 699 702 705 708 711 714 717 720 723 726 729 732 735 738 741 744 747 750 753 756 759 762 765 768 771 774 777 780 783 786 789 792 795 798 801 804 807 810 813 </DataArray>
<DataArray  type="UInt8"  Name="types"  format="ascii">5 5 5 5 5 5 5 5 5 5 5 5 5 5 5 5 5 5 5 5 5 5 5 5 5 5 5 5 5 5 5 5 5 5 5 5 5 5 5 5 5 5 5 5 5 5 5 5 5 5 5 5 5 5 5 5 5 5 5 5 5 5 5 5 5 5 5 5 5 5 5 5 5 5 5 5 5 5 5 5 5 5 5 5 5 5 5 5 5 5 5 5 5 5 5 5 5 5 5 5 5 5 5 5 5 5 5 5 5 5 5 5 5 5 5 5 5 5 5 5 5 5 5 5 5 5 5 5 5 5 5 5 5 5 5 5 5 5 5 5 5 5 5 5 5 5 5 5 5 5 5 5 5 5 5 5 5 5 5 5 5 5 5 5 5 5 5 5 5 5 5 5 5 5 5 5 5 5 5 5 5 5 5 5 5 5 5 5 5 5 5 5 5 5 5 5 5 5 5 5 5 5 5 5 5 5 5 5 5 5 5 5 5 5 5 5 5 5 5 5 5 5 5 5 5 5 5 5 5 5 5 5 5 5 5 5 5 5 5 5 5 5 5 5 5 5 5 5 5 5 5 5 5 5 5 5 5 5 5 5 5 5 5 5 5 5 5 5 5 5 5 </DataArray>
</Cells>
<PointData  Vectors="d"> 
<DataArray  type="Float64"  Name="d"  NumberOfComponents="3" format="ascii">9.5302606504170001e-08 2.5599143979601084e-08 0.0000000000000000e+00  8.3632423811872825e-08 9.8091479858010245e-10 0.0000000000000000e+00  8.4495447918063486e-08 1.0422854123972132e-08 0.0000000000000000e+00  1.0463935436147354e-07 -2.3993495853581538e-08 0.0000000000000000e+00  8.4666973264790474e-08 -7.3323610079699654e-09 0.0000000000000000e+00  8.1463826465794877e-08 9.3571238385139533e-09 0.0000000000000000e+00  8.7887641921765149e-08 -8.5816192526863987e-09 0.0000000000000000e+00  7.9146484947386798e-08 1.5260364885689049e-09 0.0000000000000000e+00  7.8772608382379148e-08 -5.2362580640845442e-09 0.0000000000000000e+00  7.6779036130472945e-08 8.8358007987830567e-09 0.0000000000000000e+00  8.1398195178104670e-08 5.5326358534163413e-10 0.0000000000000000e+00  8.1643128555345042e-08 -1.0283090514457189e-08 0.0000000000000000e+00  7.8567780006645611e-08 1.5525760565190833e-08 0.0000000000000000e+00  8.4430012534590961e-08 6.0684021361514929e-10 0.0000000000000000e+00  8.5287579046909211e-08 -9.4796680590984975e-09 0.0000000000000000e+00  8.2111574043097120e-08 1.4447736703995857e-08 0.0000000000000000e+00  8.6123714744569865e-08 7.1495638206889419e-10 0.0000000000000000e+00  8.7807139747240305e-08 -8.6119592529201683e-09 0.0000000000000000e+00  8.4650395402528794e-08 1.3360520681355848e-08 0.0000000000000000e+00  8.5680655380144089e-08 1.2091223692196778e-09 0.0000000000000000e+00  8.8640510252895016e-08 -7.6578111834927779e-09 0.0000000000000000e+00  8.5711806340570856e-08 1.2356783492503393e-08 0.0000000000000000e+00  1.0157690361009892e-07 -2.9855726610971050e-08 0.0000000000000000e+00  1.0010861795111280e-07 -3.1308337713752620e-08 0.0000000000000000e+00  1.0326512929217382e-07 -2.6829712340866933e-08 0.0000000000000000e+00  1.0254376559371132e-07 -2.8334671414212796e-08 0.0000000000000000e+00  9.8415022261851433e-08 -3.2764545029002322e-08 0.0000000000000000e+00  9.6396807038523880e-08 -3.4161708715014529e-08 0.0000000000000000e+00  9.4164465346775568e-08 -3.5545830132312024e-08 0.0000000000000000e+00  9.1688606718655027e-08 -3.6866812044918384e-08 0.0000000000000000e+00  9.1885143709040607e-08 2.3343569409918063e-08 0.0000000000000000e+00  1.0059189428508658e-07 -2.1787440534483378e-08 0.0000000000000000e+00  9.7988386352702032e-08 -1.9861250031683339e-08 0.0000000000000000e+00  8.4948868371076107e-08 -1.0445404991635861e-08 0.0000000000000000e+00  9.3304670471787235e-08 2.6699077243856343e-08 0.0000000000000000e+00  8.0517893529594369e-08 2.0648607537292234e-08 0.0000000000000000e+00  8.3700514585685775e-08 1.9084224963879448e-08 0.0000000000000000e+00  8.5739873379799741e-08 1.7516167207706481e-08 0.0000000000000000e+00  8.6085193747004886e-08 1.6038903357895681e-08 0.0000000000000000e+00  1.0308259498667819e-07 -2.5216824596323652e-08 0.0000000000000000e+00  8.0830112514614403e-08 1.2718353820970381e-08 0.0000000000000000e+00  9.1745872269878956e-08 -1.6140008982753553e-08 0.0000000000000000e+00  8.9738752729871026e-08 -1.7875768754481597e-08 0.0000000000000000e+00  9.1334126018506382e-08 -1.3599755477612915e-08 0.0000000000000000e+00  8.6389600877215404e-08 -1.9513493514011822e-08 0.0000000000000000e+00  8.5710976680082553e-08 3.5349129124597222e-08 0.0000000000000000e+00  8.7572270946321499e-08 3.3957638673744666e-08 0.0000000000000000e+00  9.1706686114985571e-08 2.9605190126381277e-08 0.0000000000000000e+00  9.2623780012844969e-08 2.8148024468220506e-08 0.0000000000000000e+00  8.1512497439823511e-08 3.8071864846950681e-08 0.0000000000000000e+00  8.3693273938392390e-08 3.6730923832183274e-08 0.0000000000000000e+00  8.9195702918962844e-08 3.2524364626341283e-08 0.0000000000000000e+00  9.0585166830847981e-08 3.1076725527665629e-08 0.0000000000000000e+00  8.9548761859812778e-08 2.1315842616367264e-08 0.0000000000000000e+00  8.6541271954174526e-08 1.8948893647605328e-08 0.0000000000000000e+00  6.1398461205460781e-08 2.8366591414431672e-08 0.0000000000000000e+00  5.4094516866489003e-08 2.5089438112357410e-08 0.0000000000000000e+00  5.7609654163947356e-08 2.9844534345829732e-08 0.0000000000000000e+00  7.0755439913397004e-08 2.7968079140459564e-08 0.0000000000000000e+00  6.8710677241927623e-08 2.4697268808270095e-08 0.0000000000000000e+00  6.4526347189933672e-08 2.6420963806385521e-08 0.0000000000000000e+00  5.8515288665800266e-08 2.4615918412688031e-08 0.0000000000000000e+00  6.2525027846873259e-08 3.4204546275786372e-08 0.0000000000000000e+00  6.3824245740503074e-08 3.2076577387102690e-08 0.0000000000000000e+00  5.5703105540963875e-08 1.4279297322922527e-08 0.0000000000000000e+00  5.5643534715693304e-08 1.7361915585949282e-08 0.0000000000000000e+00  6.3240144535977073e-08 1.7911363980572682e-08 0.0000000000000000e+00  5.2601655963622264e-08 1.9422190715365935e-08 0.0000000000000000e+00  4.5763378846120765e-08 1.6060919608688462e-08 0.0000000000000000e+00  4.9061920330238705e-08 2.6056448868256108e-08 0.0000000000000000e+00  7.6985411540591415e-08 3.5225382403603294e-08 0.0000000000000000e+00  8.2661575135059386e-08 -2.3346439646895391e-08 0.0000000000000000e+00  7.4188630265063567e-08 -2.2987758330656655e-08 0.0000000000000000e+00  7.4383443994411549e-08 -2.0170786201616659e-08 0.0000000000000000e+00  6.6379098098170748e-08 3.9086775992283245e-08 0.0000000000000000e+00  6.0528236236336109e-08 3.6792434263620657e-08 0.0000000000000000e+00  6.6756777340850775e-08 3.6890001298333579e-08 0.0000000000000000e+00  5.7442346116049188e-08 3.3258715882464718e-08 0.0000000000000000e+00  8.0976916464471189e-08 2.1199334290463728e-08 0.0000000000000000e+00  8.7190749131230966e-08 2.4344436352776685e-08 0.0000000000000000e+00  8.7783075571715257e-08 2.3095159720664483e-08 0.0000000000000000e+00  7.0390930108991695e-08 3.2606603702273201e-08 0.0000000000000000e+00  7.5431202578262458e-08 3.2788684208972791e-08 0.0000000000000000e+00  7.2675377144505937e-08 3.0442584603774789e-08 0.0000000000000000e+00  7.4765561414389050e-08 -1.7800348848884332e-08 0.0000000000000000e+00  6.9589660403764328e-08 -1.4074712497883643e-08 0.0000000000000000e+00  7.9115052034923652e-08 -1.7362912274892952e-08 0.0000000000000000e+00  7.9836176172673454e-08 2.2959364834638696e-08 0.0000000000000000e+00  8.7215016476392104e-08 2.6025301535202952e-08 0.0000000000000000e+00  6.0387471377721821e-08 2.0668523391380760e-08 0.0000000000000000e+00  7.7980025467707425e-08 2.6916483073474612e-08 0.0000000000000000e+00  7.5398170248410377e-08 2.7880783821312210e-08 0.0000000000000000e+00  7.4975634235764704e-08 2.4365481953560189e-08 0.0000000000000000e+00  8.1266013631638162e-08 -1.6185606659116230e-08 0.0000000000000000e+00  8.7088111958060197e-08 -1.9321331687932765e-08 0.0000000000000000e+00  9.2098986886096200e-08 -1.9379944708240227e-08 0.0000000000000000e+00  8.1629676724400404e-08 2.5726178881194791e-08 0.0000000000000000e+00  8.4859076995710023e-08 2.8737947743584822e-08 0.0000000000000000e+00  8.7523886090812937e-08 2.7672344006134767e-08 0.0000000000000000e+00  7.1716613815079773e-08 1.8284489197239050e-08 0.0000000000000000e+00  7.7740354692789419e-08 1.8120275876961127e-08 0.0000000000000000e+00  6.7154859442561149e-08 2.9316705231191299e-08 0.0000000000000000e+00  5.9626461952795915e-08 2.2795835661414837e-08 0.0000000000000000e+00  9.1951111644381340e-08 -3.0151499480431211e-08 0.0000000000000000e+00  8.0484168031684202e-08 2.9760932218467415e-08 0.0000000000000000e+00  4.4026401588783063e-08 1.3566798281910872e-08 0.0000000000000000e+00  4.1548595231632724e-08 1.6826229854876818e-08 0.0000000000000000e+00  5.1764745416619457e-08 2.1526699191304007e-08 0.0000000000000000e+00  4.6432368833332216e-08 2.1433006825693454e-08 0.0000000000000000e+00  8.5748430205574121e-08 3.0750220434628578e-08 0.0000000000000000e+00  7.8272889771753777e-08 3.1715965321652989e-08 0.0000000000000000e+00  8.3947944268592666e-08 3.1962090323355437e-08 0.0000000000000000e+00  7.0889670820057663e-08 2.0181933730389513e-08 0.0000000000000000e+00  8.9143923495368723e-08 -2.1734223821488848e-08 0.0000000000000000e+00  9.5420879020310913e-08 -2.1566183942879885e-08 0.0000000000000000e+00  4.9586832727959079e-08 1.3790762000879496e-08 0.0000000000000000e+00  6.8589176384043980e-08 2.1886387518863885e-08 0.0000000000000000e+00  8.5125745834301942e-08 2.1023298229258796e-08 0.0000000000000000e+00  9.7042302059642568e-08 -2.3325134311722804e-08 0.0000000000000000e+00  7.4920071828196991e-08 2.2880157832072507e-08 0.0000000000000000e+00  7.6022970850215318e-08 3.7119484436414170e-08 0.0000000000000000e+00  8.0316114322354620e-08 3.4257205879671260e-08 0.0000000000000000e+00  8.2890778750209630e-08 3.3382020158415040e-08 0.0000000000000000e+00  8.9611594809043816e-08 -3.3124557058994642e-08 0.0000000000000000e+00  7.5582053986774168e-08 2.9533212752362545e-08 0.0000000000000000e+00  6.2098761184373343e-08 1.9363778226701492e-08 0.0000000000000000e+00  9.5116898258094186e-08 -2.7556513899384143e-08 0.0000000000000000e+00  9.5710212628036631e-08 -2.4588903650565695e-08 0.0000000000000000e+00  6.7637172068800450e-08 3.4519849526551244e-08 0.0000000000000000e+00  9.2384165603986033e-08 -3.2060416249422104e-08 0.0000000000000000e+00  9.5057569946357634e-08 -2.9219376265370597e-08 0.0000000000000000e+00  8.2801159242215354e-08 -1.9463143440687849e-08 0.0000000000000000e+00  8.8853185906179462e-08 -2.7634222171423592e-08 0.0000000000000000e+00  8.2062743921993847e-08 -2.5520573028320901e-08 0.0000000000000000e+00  7.2258762147889381e-08 3.5140659854564788e-08 0.0000000000000000e+00  8.6001725796709423e-08 -3.0248243549857521e-08 0.0000000000000000e+00  7.5901764930097105e-08 2.0645197891529144e-08 0.0000000000000000e+00  8.1637143992524178e-08 -2.0911363520399021e-08 0.0000000000000000e+00  7.1149475513747188e-08 3.6780002261170019e-08 0.0000000000000000e+00  7.4741563198493818e-08 3.8563879156668251e-08 0.0000000000000000e+00  6.5796390893378118e-08 3.0678612392387743e-08 0.0000000000000000e+00  7.7053408574065826e-08 1.5686058821017029e-08 0.0000000000000000e+00  8.3102582565559484e-08 1.8984979788089212e-08 0.0000000000000000e+00  7.7357398749746856e-08 -2.6236639874388888e-08 0.0000000000000000e+00  8.4133238872914455e-08 -2.8081032717472040e-08 0.0000000000000000e+00  9.1761827809963006e-08 -2.5298226743079474e-08 0.0000000000000000e+00  8.8109174838494108e-08 -2.5869745185451092e-08 0.0000000000000000e+00  8.8192057968186751e-08 -2.3199675522161648e-08 0.0000000000000000e+00  8.3310775977754710e-08 -3.1314586517112019e-08 0.0000000000000000e+00  8.5291976400677421e-08 -3.5662717015690510e-08 0.0000000000000000e+00  8.9234530923599068e-08 -3.4975556169533716e-08 0.0000000000000000e+00  9.8302671033004216e-08 -2.6648811665703501e-08 0.0000000000000000e+00  7.9527887372387099e-08 -2.8891023787351057e-08 0.0000000000000000e+00  7.1189365381558131e-08 3.9138635570957815e-08 0.0000000000000000e+00  8.4526746493305641e-08 -3.3393163643321691e-08 0.0000000000000000e+00  </DataArray> 
</PointData> 
</Piece>
</UnstructuredGrid>
</VTKFile>