<?xml version="1.0"?>
<VTKFile type="UnstructuredGrid"  version="0.1"  >
<UnstructuredGrid>
<Piece  NumberOfPoints="156" NumberOfCells="270">
<Points>
<DataArray  type="Float64"  NumberOfComponents="3"  format="ascii">0.6002080935320936 0.2099743607214568 0  0.5927866029064282 0.2099425169910646 0  0.5959188919383184 0.2068604142176499 0  0.6002076902502445 0.190059818941928 0  0.5927838119514899 0.1901044305241269 0  0.596841527168342 0.1928643855613432 0  0.5892242015386816 0.2001769710872235 0  0.582156807917472 0.196789012267253 0  0.5820241253798564 0.2041692542917451 0  0.5853533301144873 0.1901311369929173 0  0.5779187636762829 0.1901458094028363 0  0.5898668613905819 0.2056225621366332 0  0.6001815479668576 0.2000146475335235 0  0.6001871632326882 0.1950334835091305 0  0.5946798705308647 0.1967235708150031 0  0.5949622815227695 0.2024099267487004 0  0.5891986601062948 0.1947208416368311 0  0.6001872023895397 0.2049955033977019 0  0.5853527312401836 0.209926732702327 0  0.6302037296607899 0.2292539496671718 0  0.6544182698599399 0.2353865495912618 0  0.6457778276637954 0.2209800730970376 0  0.6245623292311979 0.1025109487355875 0  0.6332800839134571 0.1311396461960067 0  0.605034355821516 0.1324166170534572 0  0.5951459174602882 0.1111556244362914 0  0.7179604487708315 0.09516523589142736 0  0.6931363409635795 0.1341455099301982 0  0.6809630743160677 0.09265828117559931 0  0.5807855454895969 0.1751967321209826 0  0.5833315004722045 0.1611407057316083 0  0.5894323137049557 0.1733866006197308 0  0.6581179106442537 0.1178013565095659 0  0.6387217501182084 0.1562483761760224 0  0.6642602982781729 0.1503931424338454 0  0.5742831472537757 0.2324323453147664 0  0.5802958274833461 0.221957391129132 0  0.5875014821258345 0.2288588619498726 0  0.7101350766940712 0.04594370090633126 0  0.727409351964034 0.1308402767974812 0  0.6700264397158552 0.05720002512606986 0  0.5897937097106095 0.3059022673256266 0  0.629336094039087 0.3129026674886999 0  0.6130202954493527 0.2897980678719303 0  0.5671631430162435 0.2475382334010734 0  0.5844039842756515 0.2421185349229089 0  0.5964807827540383 0.167277068853792 0  0.7991435460007325 0.1996403668710717 0  0.755457942493184 0.1590297487835422 0  0.7510263092127817 0.2077650710944604 0  0.5680408136294275 0.2847775123727234 0  0.5917912483604353 0.2809290708766298 0  0.6159822183174726 0.2465774494527068 0  0.6370050776742028 0.2529265665833578 0  0.5816182144814167 0.1835910420610977 0  0.5746139706934397 0.183721155559693 0  0.6157660608714187 0.267377235693554 0  0.5928097225996768 0.2655717663172825 0  0.6321921668419519 0.0615550913042049 0  0.5951362636191336 0.08374829607178352 0  0.6035397063819267 0.3406449967422897 0  0.7971129279722592 0.1414093577378188 0  0.7015636026039732 0.192508490940424 0  0.6856573797778273 0.2295189636294684 0  0.6774985244418203 0.2026717207247165 0  0.60677738631525 0.1922507820249635 0  0.7467958595648856 4.547304667904532e-21 0  0.8039733463919316 6.167540260215445e-22 0  0.7693990521117056 0.05640074311041504 0  0.6623171602389932 0.2596340973544269 0  0.5976647748689732 0.1849223650619446 0  0.6046287257238904 0.1869767720090312 0  0.6342418506987521 0.3582786893408037 0  0.6188239552951708 0.2076048990520603 0  0.6332101704974644 0.2085908016495237 0  0.6202276018041715 0.1981363453544271 0  0.8280695273875203 0.04601101442385203 0  0.7467958595662458 0.41 0  0.6916151138480078 0.41 0  0.7140495834567369 0.3646153743511245 0  0.6660505853830201 0.297229705715855 0  0.6941441535373102 0.2673931527795468 0  0.7635597742781636 0.1106826859154327 0  0.6155511236804263 0.1502048340849353 0  0.5977438179159905 0.1534675949998502 0  0.5990746810573868 0.2514710640434099 0  0.5964665618300757 0.235398763008418 0  0.6297124439594894 0.1925040091779556 0  0.6343215336502802 0.1766108003080879 0  0.642751789415468 0.1947352358541228 0  0.6153800521100876 0.2301613418706935 0  0.7666292593210948 0.3578467070129894 0  0.6055015482084967 0.1810854027824171 0  0.7237526140571795 0.2517843485319184 0  0.7667644812007857 0.2524570808240311 0  0.8147158615869139 0.09619518125814096 0  0.7613725978217724 0.3026781547946741 0  0.8174528079408085 0.2698467483528049 0  0.5968271063856652 0.177935335349189 0  0.7176812023603045 0.2162884666946783 0  0.6212389698878465 0.2177905271074739 0  0.6713034212306098 0.1788266144461923 0  0.6570890231671538 0.3356080550134586 0  0.7959456799915888 0.3268868233573066 0  0.593333837052936 0.0494736408814877 0  0.6650066690921282 0.0226185474241675 0  0.6102080175106551 0.2029223545791901 0  0.6111350907589549 0.1967252819877299 0  0.6085739447181995 0.162678885045935 0  0.8039733463934788 0.41 0  0.8363546626531149 0.3257333801740731 0  0.5815157259810532 0.2563171688689589 0  0.5869673343216626 4.378957502420175e-21 0  0.6193127673765492 0.02916172081687841 0  0.6037174269074175 0.2163576474907717 0  0.6047893138758467 0.2078972276541609 0  0.5890721836647904 0.1824780335881905 0  0.6993890216015459 0.3008959115416608 0  0.6642769303213726 0.2170478143158154 0  0.7294691882184492 0.1878384771985387 0  0.5964541830350122 0.215528574134639 0  0.5889005223037607 0.2177992477209735 0  0.5869673343225223 0.41 0  0.5771021501818496 0.3629367403707262 0  0.608433810808375 0.3780025162749572 0  0.7295480252114842 0.2840788606650572 0  0.5965550114411869 0.2233462116153627 0  0.6050355477642556 0.2280188908427045 0  0.5770060713102946 0.2703112758679008 0  0.6527762505668507 0.08571395134618576 0  0.6916151138468254 3.586355426033596e-21 0  0.6155927098867492 0.175218828284565 0  0.6041321077077594 0.1726756706456765 0  0.6689600784225841 0.3716816855664702 0  0.691590734489788 0.1646533956161587 0  0.6231136280990088 0.1637966353114477 0  0.6211291038793479 0.1847329217209894 0  0.614221990734873 0.1920299969870753 0  0.639033308287947 0.2784395678466833 0  0.6903363528476568 0.3321481188657364 0  0.6049422771789387 0.1975226454227592 0  0.6106844710133265 0.2118383364974354 0  0.6514320281482702 0.1835349856043103 0  0.8632198139502143 1.257280963750849e-21 0  0.8202348238399311 0.3645912306391802 0  0.6504666568037836 0.2081302647762246 0  0.6605129874906044 0.1966718661781864 0  0.7279860038698511 0.323795127884268 0  0.6108916718344347 0.2205188993711823 0  0.6067442636137663 0.24007576567911 0  0.6383613676644679 0.41 0  0.6383613676634521 9.297808954714495e-21 0  0.7206987179599996 0.161592875270982 0  0.6045350239148278 0.2025074973432219 0  0.6538769122462615 0.1680663339892705 0  0.6114740076110207 0.1856391192828004 0  </DataArray>
</Points>
<Cells>
<DataArray  type="UInt32"  Name="connectivity"  format="ascii">0 1 2  3 4 5  6 7 8  9 10 7  6 8 11  12 13 14  12 15 14  9 7 16  12 17 15  15 2 11  6 7 16  1 2 11  18 8 11  4 14 5  17 15 2  4 9 16  18 1 11  13 14 5  6 15 11  6 15 14  3 13 5  0 17 2  4 14 16  6 14 16  19 20 21  22 23 24  22 25 24  26 27 28  29 30 31  27 32 28  33 23 34  35 36 37  26 38 28  26 27 39  40 38 28  41 42 43  35 44 45  46 30 31  47 48 49  41 50 51  19 52 53  29 54 55  56 51 57  22 58 59  41 42 60  35 45 37  47 48 61  62 63 64  3 13 65  66 67 68  69 63 20  26 68 38  3 70 71  19 20 53  42 60 72  73 74 75  67 68 76  77 78 79  69 80 81  26 68 82  83 24 84  56 85 57  86 85 45  87 88 89  19 52 90  77 79 91  92 70 71  93 49 94  95 68 76  96 97 94  98 92 70  93 49 99  19 74 100  22 25 59  47 97 94  62 101 64  102 42 72  32 23 34  73 74 100  96 97 103  104 58 59  22 32 23  40 38 105  87 74 75  66 68 38  106 75 107  83 108 84  109 77 91  110 97 103  111 44 45  95 68 82  56 51 43  112 104 113  0 114 115  47 49 94  29 116 54  117 80 81  56 52 85  63 20 118  48 49 119  62 63 99  0 1 120  83 23 24  18 1 121  122 123 124  33 83 23  93 94 125  27 32 34  126 114 127  50 51 128  86 45 37  4 9 116  69 63 81  93 63 99  22 32 129  130 66 38  131 132 108  126 121 37  111 85 45  102 42 80  78 79 133  93 63 81  86 126 37  62 101 134  58 113 105  3 4 70  130 38 105  33 83 135  87 88 136  137 136 75  36 121 37  42 43 138  56 43 138  40 58 105  102 133 139  19 74 21  131 88 136  48 82 39  41 51 43  79 133 139  46 98 31  29 116 31  13 65 140  73 141 100  26 82 39  142 88 89  67 143 76  86 126 127  96 94 125  1 121 120  109 91 144  145 118 146  73 106 75  42 80 138  145 21 118  79 91 147  148 141 100  101 34 134  86 85 149  4 116 70  150 124 72  117 81 125  46 30 84  9 10 54  131 108 135  0 120 114  123 60 124  96 91 147  12 13 140  3 65 71  32 28 129  46 98 132  9 116 54  150 133 72  150 122 124  102 80 139  56 52 53  98 92 132  73 106 141  93 81 125  87 74 89  112 151 113  148 114 127  78 150 133  137 75 107  131 88 135  62 152 134  126 120 114  151 130 105  48 82 61  126 121 120  69 80 138  145 89 146  98 116 70  117 80 139  95 82 61  12 17 153  145 74 21  22 58 129  27 34 134  46 132 108  106 141 115  64 118 146  131 92 132  96 91 103  27 152 39  87 136 75  63 64 118  27 152 134  46 108 84  69 20 53  48 152 39  20 21 118  62 99 119  48 152 119  142 89 146  111 128 57  10 54 55  98 116 31  101 64 146  0 17 115  142 88 154  62 152 119  145 74 89  141 114 115  104 58 113  51 128 57  33 34 154  111 85 57  12 140 153  40 58 129  33 88 154  52 85 149  49 99 119  131 92 155  106 153 115  52 90 149  40 28 129  102 133 72  101 34 154  151 113 105  101 142 146  33 88 135  65 71 155  56 53 138  60 124 72  106 140 153  148 90 100  137 136 155  127 90 149  137 65 155  17 153 115  117 147 139  101 142 154  131 136 155  148 127 90  86 127 149  117 147 125  83 108 135  69 53 138  106 140 107  79 147 139  91 144 103  110 144 103  148 141 114  137 65 107  65 140 107  96 147 125  19 90 100  92 71 155  </DataArray>
<DataArray  type="UInt32"  Name="offsets"  format="ascii">3 6 9 12 15 18 21 24 27 30 33 36 39 42 45 48 51 54 57 60 63 66 69 72 75 78 81 84 87 90 93 96 99 102 105 108 111 114 117 120 123 126 129 132 135 138 141 144 147 150 153 156 159 162 165 168 171 174 177 180 183 186 189 192 195 198 201 204 207 210 213 216 219 222 225 228 231 234 237 240 243 246 249 252 255 258 261 264 267 270 273 276 279 282 285 288 291 294 297 300 303 306 309 312 315 318 321 324 327 330 333 336 339 342 345 348 351 354 357 360 363 366 369 372 375 378 381 384 387 390 393 396 399 402 405 408 411 414 417 420 423 426 429 432 435 438 441 444 447 450 453 456 459 462 465 468 471 474 477 480 483 486 489 492 495 498 501 504 507 510 513 516 519 522 525 528 531 534 537 540 543 546 549 552 555 558 561 564 567 570 573 576 579 582 585 588 591 594 597 600 603 606 609 612 615 618 621 624 627 630 633 636 639 642 645 648 651 654 657 660 663 666 669 672 675 678 681 684 687 690 693 696 699 702 705 708 711 714 717 720 723 726 729 732 735 738 741 744 747 750 753 756 759 762 765 768 771 774 777 780 783 786 789 792 795 798 801 804 807 810 </DataArray>
<DataArray  type="UInt8"  Name="types"  format="ascii">5 5 5 5 5 5 5 5 5 5 5 5 5 5 5 5 5 5 5 5 5 5 5 5 5 5 5 5 5 5 5 5 5 5 5 5 5 5 5 5 5 5 5 5 5 5 5 5 5 5 5 5 5 5 5 5 5 5 5 5 5 5 5 5 5 5 5 5 5 5 5 5 5 5 5 5 5 5 5 5 5 5 5 5 5 5 5 5 5 5 5 5 5 5 5 5 5 5 5 5 5 5 5 5 5 5 5 5 5 5 5 5 5 5 5 5 5 5 5 5 5 5 5 5 5 5 5 5 5 5 5 5 5 5 5 5 5 5 5 5 5 5 5 5 5 5 5 5 5 5 5 5 5 5 5 5 5 5 5 5 5 5 5 5 5 5 5 5 5 5 5 5 5 5 5 5 5 5 5 5 5 5 5 5 5 5 5 5 5 5 5 5 5 5 5 5 5 5 5 5 5 5 5 5 5 5 5 5 5 5 5 5 5 5 5 5 5 5 5 5 5 5 5 5 5 5 5 5 5 5 5 5 5 5 5 5 5 5 5 5 5 5 5 5 5 5 5 5 5 5 5 5 5 5 5 5 5 5 5 5 5 5 5 5 5 5 5 5 5 5 </DataArray>
</Cells>
<PointData  Vectors="d"> 
<DataArray  type="Float64"  Name="d"  NumberOfComponents="3" format="ascii">6.9220761350590207e-08 5.9204000015087397e-09 0.0000000000000000e+00  7.7459419975885204e-08 1.0347671159521209e-08 0.0000000000000000e+00  7.1035920513831682e-08 5.3821589638743906e-09 0.0000000000000000e+00  7.1752944898071595e-08 -4.8688610766732702e-09 0.0000000000000000e+00  8.3793244700915356e-08 -9.1259658952725131e-09 0.0000000000000000e+00  7.3360459490081617e-08 -2.9869850796939757e-09 0.0000000000000000e+00  7.1684841844144117e-08 1.3742892441352874e-09 0.0000000000000000e+00  7.8003941506732206e-08 -3.7971612056515512e-09 0.0000000000000000e+00  7.5953938620135816e-08 6.7784145301723295e-09 0.0000000000000000e+00  9.2113969846609041e-08 -1.2184409540873591e-08 0.0000000000000000e+00  9.6824740429965126e-08 -1.4844058389722121e-08 0.0000000000000000e+00  7.3212853318431996e-08 6.6982897363829879e-09 0.0000000000000000e+00  7.0557761723629163e-08 4.2206128213486895e-10 0.0000000000000000e+00  7.0435619246123969e-08 -1.7733440128462295e-09 0.0000000000000000e+00  7.0948173933463554e-08 -7.2017205020204862e-10 0.0000000000000000e+00  6.9540724893626303e-08 2.6545371063732328e-09 0.0000000000000000e+00  7.6833978019270964e-08 -4.4149091535459158e-09 0.0000000000000000e+00  6.9713598186053324e-08 2.6895364085694558e-09 0.0000000000000000e+00  8.4127059617692515e-08 1.3447565786541073e-08 0.0000000000000000e+00  4.7357542034520317e-08 4.1093849412386800e-09 0.0000000000000000e+00  3.7713302178538900e-08 2.8377519505556708e-09 0.0000000000000000e+00  4.2539266482185092e-08 2.3298933968695949e-09 0.0000000000000000e+00  3.1200779192931237e-08 -4.9312065296039703e-09 0.0000000000000000e+00  3.7850603772598010e-08 -4.5919440924614815e-09 0.0000000000000000e+00  4.6209376008638698e-08 -7.4416888318152174e-09 0.0000000000000000e+00  3.9782793789838692e-08 -7.7650209329059169e-09 0.0000000000000000e+00  1.5378147553604188e-08 -1.1033406242586065e-09 0.0000000000000000e+00  2.4485738103493269e-08 -1.5163655283557686e-09 0.0000000000000000e+00  1.9603058376731627e-08 -2.0019817154604625e-09 0.0000000000000000e+00  7.9802282433161856e-08 -1.2835383982082418e-08 0.0000000000000000e+00  6.8213968427108576e-08 -1.1632801460413317e-08 0.0000000000000000e+00  7.3359660001298184e-08 -1.0403621557645064e-08 0.0000000000000000e+00  2.8671214167879853e-08 -3.0332174211558088e-09 0.0000000000000000e+00  4.2351299770937664e-08 -3.4881958982689578e-09 0.0000000000000000e+00  3.3361908570835311e-08 -2.2043027467906707e-09 0.0000000000000000e+00  7.0202459369389830e-08 1.5203201255719067e-08 0.0000000000000000e+00  7.5834220299693273e-08 1.4311207064240515e-08 0.0000000000000000e+00  6.7746436247555858e-08 1.2015908372547921e-08 0.0000000000000000e+00  8.2054854372709408e-09 -7.9121800612294968e-10 0.0000000000000000e+00  1.8431937227855048e-08 -8.2695076384746497e-10 0.0000000000000000e+00  1.3254172465651606e-08 -1.7131064648314611e-09 0.0000000000000000e+00  3.2488380514069651e-08 8.2233705341999140e-09 0.0000000000000000e+00  2.5417766860121239e-08 4.9348069632512917e-09 0.0000000000000000e+00  3.4693189262819893e-08 6.9470373662074663e-09 0.0000000000000000e+00  6.2056279034841737e-08 1.5507065142734126e-08 0.0000000000000000e+00  6.1080811857675895e-08 1.2378452815562967e-08 0.0000000000000000e+00  6.5455139998055720e-08 -8.7626188795069855e-09 0.0000000000000000e+00  1.2494357294589291e-08 1.5566997532386177e-10 0.0000000000000000e+00  1.6578778431123473e-08 -2.6286148366245377e-10 0.0000000000000000e+00  1.8191040026197419e-08 3.1980522830301163e-10 0.0000000000000000e+00  4.3162277196989210e-08 1.2119720392455415e-08 0.0000000000000000e+00  4.1515448418909960e-08 9.5226986844998267e-09 0.0000000000000000e+00  4.8177968981956004e-08 6.8594940525588443e-09 0.0000000000000000e+00  3.9692215232119342e-08 4.8071067791152080e-09 0.0000000000000000e+00  8.7174587913815336e-08 -1.3049901552269461e-08 0.0000000000000000e+00  9.1014910440017803e-08 -1.5259703585495425e-08 0.0000000000000000e+00  4.1410308837708230e-08 7.1307020324667791e-09 0.0000000000000000e+00  4.7569266038596359e-08 1.0084293265073555e-08 0.0000000000000000e+00  1.7750054411921275e-08 -3.0263825549980230e-09 0.0000000000000000e+00  2.9044666365916181e-08 -6.1601372003308335e-09 0.0000000000000000e+00  1.9947189651544725e-08 4.9731642518913869e-09 0.0000000000000000e+00  1.1260820739170564e-08 -1.6886120277631796e-10 0.0000000000000000e+00  2.7085993424547239e-08 5.8990735798201799e-11 0.0000000000000000e+00  2.9773672074659222e-08 1.4760325665122786e-09 0.0000000000000000e+00  3.3168233806110563e-08 4.6832583840239583e-10 0.0000000000000000e+00  6.5625600903213889e-08 -2.3004106477175272e-09 0.0000000000000000e+00  0.0000000000000000e+00 0.0000000000000000e+00 0.0000000000000000e+00  0.0000000000000000e+00 0.0000000000000000e+00 0.0000000000000000e+00  6.5193139644012661e-09 -3.5946800352692405e-10 0.0000000000000000e+00  3.1703718812721773e-08 3.2686770790288616e-09 0.0000000000000000e+00  7.3741466946206339e-08 -7.2764710406007216e-09 0.0000000000000000e+00  6.7196462854839583e-08 -4.4131861524307672e-09 0.0000000000000000e+00  1.3020239948799805e-08 2.7406811031278822e-09 0.0000000000000000e+00  5.6676067276808424e-08 2.0873994906828240e-09 0.0000000000000000e+00  4.9068373550587830e-08 1.5821357605830943e-09 0.0000000000000000e+00  5.6529684234391946e-08 6.1854301018588641e-11 0.0000000000000000e+00  3.4468604470968438e-09 -1.0862932926078312e-10 0.0000000000000000e+00  0.0000000000000000e+00 0.0000000000000000e+00 0.0000000000000000e+00  0.0000000000000000e+00 0.0000000000000000e+00 0.0000000000000000e+00  7.3047122856608142e-09 9.2237338744795042e-10 0.0000000000000000e+00  2.3860100127627178e-08 3.2718117812109024e-09 0.0000000000000000e+00  2.4030031509567921e-08 2.0847435331958919e-09 0.0000000000000000e+00  1.2338958880937531e-08 -4.8743766050416063e-10 0.0000000000000000e+00  4.9426419237639256e-08 -6.0871525214461140e-09 0.0000000000000000e+00  5.7894797648029453e-08 -8.6967854740557393e-09 0.0000000000000000e+00  5.1931746174205286e-08 9.4642220995646988e-09 0.0000000000000000e+00  6.0179844285864425e-08 9.8749850531829812e-09 0.0000000000000000e+00  5.1271873042763173e-08 -6.9694171942037406e-10 0.0000000000000000e+00  4.7698988667422448e-08 -2.3809129971506547e-09 0.0000000000000000e+00  4.5230797355361822e-08 -1.4885396902231758e-10 0.0000000000000000e+00  5.3597367295893379e-08 5.9709017993099034e-09 0.0000000000000000e+00  5.8585256411872706e-09 5.1857012680365361e-10 0.0000000000000000e+00  6.5236513212910450e-08 -5.4485784361029084e-09 0.0000000000000000e+00  2.0598767446321367e-08 1.1893173907369883e-09 0.0000000000000000e+00  1.4778874124605405e-08 6.6219950270899758e-10 0.0000000000000000e+00  7.4563824436261608e-09 -1.9435727867200996e-10 0.0000000000000000e+00  1.1748245962998616e-08 8.5752584584053444e-10 0.0000000000000000e+00  9.3835350715825679e-09 3.8716664776812747e-10 0.0000000000000000e+00  7.0935100947636716e-08 -8.1792044662324714e-09 0.0000000000000000e+00  2.3553294380993746e-08 6.4009875430637186e-10 0.0000000000000000e+00  5.3757596810832580e-08 3.6907198648191349e-09 0.0000000000000000e+00  3.4413745908105334e-08 -7.8169509533465439e-10 0.0000000000000000e+00  1.6735556532651113e-08 2.8770505992442285e-09 0.0000000000000000e+00  7.3253078676776288e-09 4.8906004759713636e-10 0.0000000000000000e+00  1.6820533374679011e-08 -3.8447067126560344e-09 0.0000000000000000e+00  5.4322136826795003e-09 -7.7773083569338545e-10 0.0000000000000000e+00  6.2638156280023816e-08 1.3653272422125079e-09 0.0000000000000000e+00  6.2401173726423750e-08 -5.2073985919234819e-10 0.0000000000000000e+00  5.6947897674967612e-08 -6.6182750441953809e-09 0.0000000000000000e+00  0.0000000000000000e+00 0.0000000000000000e+00 0.0000000000000000e+00  5.4991435674333844e-09 2.8873729944616520e-10 0.0000000000000000e+00  5.4355084974184153e-08 1.2263756170356914e-08 0.0000000000000000e+00  0.0000000000000000e+00 0.0000000000000000e+00 0.0000000000000000e+00  8.8836756078556362e-09 -1.7440061767300628e-09 0.0000000000000000e+00  6.4564419537903859e-08 6.4569401907788762e-09 0.0000000000000000e+00  6.5789627528930630e-08 3.5670854964693054e-09 0.0000000000000000e+00  8.0506044633140975e-08 -1.0515684569214922e-08 0.0000000000000000e+00  1.8529200114118156e-08 2.0312708911530515e-09 0.0000000000000000e+00  3.6558273968800279e-08 1.4240455608806878e-09 0.0000000000000000e+00  2.1513242039458897e-08 1.6540716866253162e-11 0.0000000000000000e+00  7.0452551354778243e-08 8.8956944223116544e-09 0.0000000000000000e+00  7.4479678078545881e-08 1.1737712971680888e-08 0.0000000000000000e+00  0.0000000000000000e+00 0.0000000000000000e+00 0.0000000000000000e+00  1.4389684823431045e-08 4.3695017401658677e-09 0.0000000000000000e+00  8.8867121465559860e-09 2.2536211909969607e-09 0.0000000000000000e+00  1.6844977852935217e-08 1.3272037997860625e-09 0.0000000000000000e+00  6.6224287603719616e-08 9.4137004573562103e-09 0.0000000000000000e+00  5.9398565980459402e-08 7.6448026609657654e-09 0.0000000000000000e+00  4.8488503560645756e-08 1.2090976565195009e-08 0.0000000000000000e+00  2.1962381104519750e-08 -2.9532600176363168e-09 0.0000000000000000e+00  0.0000000000000000e+00 0.0000000000000000e+00 0.0000000000000000e+00  5.7025342672510437e-08 -4.4338653983693775e-09 0.0000000000000000e+00  6.3313066290981050e-08 -6.7747918252248100e-09 0.0000000000000000e+00  8.0893575870007114e-09 1.3870189516356350e-09 0.0000000000000000e+00  2.8087491895625672e-08 -9.0711922383183158e-10 0.0000000000000000e+00  5.0348601315809470e-08 -4.5202594912562163e-09 0.0000000000000000e+00  5.5430410382542280e-08 -2.4130979179357759e-09 0.0000000000000000e+00  6.0290848249024654e-08 -1.5880760558220038e-09 0.0000000000000000e+00  3.2929124194193926e-08 4.9673057027919419e-09 0.0000000000000000e+00  1.4361985247639224e-08 1.9441188715524586e-09 0.0000000000000000e+00  6.6859900579084132e-08 -5.1652272842974624e-10 0.0000000000000000e+00  6.1006360605413602e-08 3.8782451063082336e-09 0.0000000000000000e+00  4.1315062425498778e-08 -9.7458689312365200e-10 0.0000000000000000e+00  0.0000000000000000e+00 0.0000000000000000e+00 0.0000000000000000e+00  3.4838176382695761e-09 2.2518646754252932e-10 0.0000000000000000e+00  4.1841050537665075e-08 1.0935420330622227e-09 0.0000000000000000e+00  3.8479628975422838e-08 1.3688139493739409e-10 0.0000000000000000e+00  1.2308464810598405e-08 1.2486914142202794e-09 0.0000000000000000e+00  5.8746473006424722e-08 5.5674688601248355e-09 0.0000000000000000e+00  5.3909311648518838e-08 8.0231246818543343e-09 0.0000000000000000e+00  0.0000000000000000e+00 0.0000000000000000e+00 0.0000000000000000e+00  0.0000000000000000e+00 0.0000000000000000e+00 0.0000000000000000e+00  2.1997915695022230e-08 -5.2845795430098735e-10 0.0000000000000000e+00  6.6741497178072932e-08 1.4419738766562571e-09 0.0000000000000000e+00  3.8978733701286846e-08 -1.9202730079656233e-09 0.0000000000000000e+00  6.1676575302085311e-08 -3.3874908068274897e-09 0.0000000000000000e+00  </DataArray> 
</PointData> 
</Piece>
</UnstructuredGrid>
</VTKFile>