<?xml version="1.0"?>
<VTKFile type="UnstructuredGrid"  version="0.1"  >
<UnstructuredGrid>
<Piece  NumberOfPoints="156" NumberOfCells="266">
<Points>
<DataArray  type="Float64"  NumberOfComponents="3"  format="ascii">0.3265584440138656 0.2701982965755527 0  0.3425827730213254 0.2775490624001279 0  0.3236822566612301 0.2946804151932343 0  0.2287022422596175 0.3133945599212921 0  0.2457730965225932 0.3036234195016176 0  0.2370233940982565 0.3305331750007028 0  0.1876598437153193 0.2701426433947245 0  0.1759555740317799 0.2687445568064804 0  0.1862511420802037 0.2806179913950349 0  0.170488587650384 0.2583582216660953 0  0.1801719696877668 0.2578451234181237 0  0.3010024954241506 0.2998483851810835 0  0.2861046500798103 0.3223885669627787 0  0.2799350482725177 0.2955911100327573 0  0.2004346252886872 0.2885780529215961 0  0.2083712867304491 0.2774019266038116 0  0.2175968486258527 0.2860468412212162 0  0.1987633341668659 0.2706413324271654 0  0.1949745518995776 0.2497468076502398 0  0.202315810036185 0.2499463414463592 0  0.198895486705849 0.2591741248798264 0  0.3120162088223035 0.2807354669818793 0  0.1613724821254014 0.2874962185501682 0  0.1497979449765855 0.3068850128966736 0  0.1704997174297438 0.2989811228310733 0  0.2981818473193473 0.2362731965634287 0  0.3104463871459652 0.2435678541253522 0  0.295129231992848 0.2480286671739721 0  0.1273239957535623 0.41 0  0.1550903261068551 0.3759693682204912 0  0.1305542911002669 0.372389347426925 0  0.2328159919912765 0.2913999377439178 0  0.2145840751750727 0.3012304334390075 0  0.2199771114463653 0.2730501580239536 0  0.2088818489285084 0.2650052799580235 0  0.233563423837289 0.3548008358519043 0  0.2163844637642104 0.3798692126604842 0  0.2537791305671729 0.3777575783058346 0  0.3141745521466497 0.41 0  0.309863113326083 0.3708799512461004 0  0.2803649967427771 0.3762680340412324 0  0.1712217486819433 0.279245499325484 0  0.3236487193708104 0.3423855031891972 0  0.3436618430048519 0.3743203243528148 0  0.1452248091961941 0.289465489374806 0  0.2544957169008938 0.2458496487468983 0  0.2658984938174966 0.2418737706457149 0  0.2588403777659568 0.2361109105456292 0  0.2607623769286219 0.2266935388412562 0  0.2516566326237816 0.2324929325273802 0  0.2510749320759732 0.2249525814879292 0  0.2434016943460536 0.2381731503826244 0  0.2460721461329484 0.2485215115435886 0  0.2507682108379546 0.23994852265899 0  0.2548452411949337 0.3306544880383077 0  0.294170441219654 0.2779111695994156 0  0.1851754658237616 0.2631069563962531 0  0.2609266153430104 0.2623059508703712 0  0.250280642310719 0.2591446561138195 0  0.2578743493369726 0.2736679380941885 0  0.2628104814742165 0.2527088575234548 0  0.1620856860352591 0.41 0  0.1654287102851731 0.3451696927766393 0  0.1448020442234796 0.3470005017491947 0  0.2397116623738856 0.2463911522364973 0  0.2461084655273365 0.2733763677724539 0  0.3250370050382602 0.3123659716128147 0  0.2714093729881774 0.2220266143941655 0  0.2693482236912652 0.2322534486158051 0  0.2747286017887007 0.3519804368075552 0  0.2673992789077624 0.3181840576455133 0  0.342587950734208 0.2940424007306913 0  0.3512410441032661 0.3079498498588922 0  0.2403614808804098 0.2646814932483169 0  0.259552432591345 0.2853122241188966 0  0.2459061291750828 0.2871376480732687 0  0.2199947708262268 0.2630309293949717 0  0.2959760319200834 0.2600463338933225 0  0.310114512932086 0.2650921199346422 0  0.2632850933852122 0.3015782449213228 0  0.2741016576310038 0.41 0  0.2814233197789748 0.2642618424146262 0  0.2765096639387368 0.278510183660316 0  0.2802681984929936 0.2293261874631373 0  0.2855041768384814 0.2412214403389087 0  0.2752622577421838 0.2394137064682381 0  0.1664697428889364 0.2475708528804416 0  0.1604627709104312 0.25578927057693 0  0.2898125181556714 0.2309765816823018 0  0.3642110746462643 0.3179553522469777 0  0.3419566033081103 0.3257381451907726 0  0.3476734521486758 0.3491876259383821 0  0.3054647365151184 0.3221671485053357 0  0.2352133972703547 0.2354967132658811 0  0.2400332147833751 0.2299556624715287 0  0.1666266134841279 0.3117639277297014 0  0.1841137380931923 0.3084293219726385 0  0.1776962738782528 0.3258625117123627 0  0.2234150974215506 0.2441784247426195 0  0.2296339016331197 0.2402719738031125 0  0.2306239264988177 0.2483741480938703 0  0.175969532021641 0.3607449396386337 0  0.1917129523219076 0.3413470427232828 0  0.3556974926297398 0.41 0  0.2096071079201568 0.2490683551528932 0  0.2166911463435495 0.2471317900544655 0  0.2155734412541374 0.2556950400673027 0  0.2354281840915826 0.41 0  0.1892753425361177 0.256456015614316 0  0.2370757284226851 0.2561429563711097 0  0.2439893735792577 0.2237683615780412 0  0.246996525252926 0.2170682926548348 0  0.2069658076201908 0.2559703592681054 0  0.175285735507049 0.2508157606924767 0  0.3718165916477078 0.3492857077650312 0  0.2991980039383669 0.3443686179677345 0  0.1985984335009509 0.3216766994256173 0  0.217910592525454 0.3335512003867645 0  0.1957421839301728 0.3607041689718116 0  0.1837119627990963 0.3830309512245518 0  0.2254370218178218 0.2562756610799137 0  0.3193705133676598 0.2539468507858125 0  0.2751570057398611 0.2504873776326092 0  0.3057363157454472 0.253652475443285 0  0.1877417105384929 0.2484740584176516 0  0.1742197252833576 0.2428413052501257 0  0.1608339285009467 0.3262711082801898 0  0.2122354574698372 0.3536574654127057 0  0.2000444352715784 0.3047263842187058 0  0.1647302407654564 0.2637532318244752 0  0.2460443346227396 0.2294379240673573 0  0.2294832924172058 0.2628639273691346 0  0.2356759718602211 0.2416803607546167 0  0.3766334717278183 0.3830543883563675 0  0.1807733240458683 0.2461555514727623 0  0.2220647361491399 0.2502298110559257 0  0.1441749051316943 0.3262640795223792 0  0.1771255475221635 0.2877463825753171 0  0.1981052433265003 0.41 0  0.252079295676793 0.3496819510525451 0  0.2337214712224493 0.2717715786820842 0  0.3606384796806357 0.2792877352012232 0  0.3755723683292008 0.2925721010620304 0  0.3582872498044411 0.2931544067095186 0  0.1827273599989711 0.251782164016796 0  0.2678348565275071 0.2705973389638561 0  0.2864039070746339 0.2524416061492289 0  0.1632869573156875 0.2726001544693986 0  0.2130071773594514 0.3158531345040532 0  0.2703318205432964 0.26032751818011 0  0.1865876854290894 0.2944373879071608 0  0.152856683908348 0.2778509225157642 0  0.155067073412047 0.2649225328713828 0  0.1921272967191446 0.2639145241486498 0  0.2282386454025817 0.2809370268678544 0  0.2375872825263085 0.2803552891841766 0  </DataArray>
</Points>
<Cells>
<DataArray  type="UInt32"  Name="connectivity"  format="ascii">0 1 2  3 4 5  6 7 8  9 10 7  11 12 13  14 15 16  14 15 17  18 19 20  11 21 2  22 23 24  14 17 8  25 26 27  28 29 30  3 31 32  14 32 16  33 34 15  35 36 37  38 39 40  7 8 41  42 39 43  44 22 23  45 46 47  48 49 50  51 52 53  54 4 5  11 21 55  10 7 56  57 58 59  45 58 60  61 28 29  62 29 63  64 51 52  65 58 59  21 0 2  38 39 43  11 66 2  48 67 68  69 54 70  71 66 72  65 58 73  74 4 75  54 4 70  69 12 70  33 34 76  77 55 78  79 13 70  38 80 40  79 4 70  12 13 70  77 55 81  82 74 13  71 66 2  83 67 68  82 55 13  83 84 85  9 86 87  83 84 88  89 90 91  48 68 47  42 66 92  93 94 51  45 46 60  95 96 97  98 99 100  62 101 102  6 17 8  62 97 102  103 38 43  104 105 106  107 36 37  18 20 108  31 32 16  71 1 2  109 64 52  29 63 30  95 23 24  11 12 92  82 55 81  110 111 50  19 20 112  45 52 53  109 64 100  9 86 113  114 89 91  34 106 76  79 74 4  42 39 115  116 117 102  48 49 47  118 36 119  45 47 53  3 31 4  69 115 40  109 120 100  42 115 92  121 0 78  25 84 88  122 46 60  83 68 85  62 29 101  79 74 13  45 58 52  11 66 92  26 27 123  11 55 13  124 18 108  21 55 78  57 58 60  125 86 113  95 23 126  25 84 27  117 127 102  14 32 128  46 68 47  116 96 97  42 43 91  66 90 72  34 15 17  95 96 24  9 7 129  94 51 130  109 58 52  61 29 119  33 76 131  93 51 132  33 15 16  122 46 85  121 26 123  114 43 133  125 134 113  114 43 91  99 100 132  9 10 113  65 75 59  39 115 40  98 100 135  136 23 126  118 101 102  34 20 17  137 8 41  118 36 127  104 106 112  107 138 36  35 37 139  105 106 135  80 107 37  35 36 127  69 37 139  6 7 56  33 140 131  34 106 112  138 61 119  141 142 143  124 108 144  82 74 145  69 12 115  21 0 78  77 81 146  122 84 85  49 51 130  147 7 129  109 73 131  141 1 143  121 78 123  138 36 119  19 104 112  122 81 146  89 142 143  134 113 144  42 66 90  3 117 148  122 60 149  109 120 131  74 75 59  74 59 145  118 127 102  96 24 150  64 51 132  34 20 112  116 96 128  89 143 72  122 81 149  32 128 148  12 115 92  137 24 150  116 117 148  3 32 148  64 100 132  109 58 73  69 37 40  46 68 85  81 149 145  71 1 143  122 84 146  69 54 139  116 128 148  103 43 133  31 4 75  10 113 144  82 81 145  120 100 135  147 22 41  3 117 5  147 22 151  140 73 131  120 106 135  147 151 152  54 5 139  10 108 144  118 119 101  136 126 63  80 37 40  120 106 76  77 27 146  20 17 153  57 60 149  35 5 139  29 119 101  95 97 126  33 16 154  33 140 154  49 47 53  62 126 63  14 128 150  49 51 53  9 87 129  65 140 73  110 50 130  77 78 123  35 117 5  94 110 130  99 93 132  137 22 41  116 97 102  84 27 146  105 98 135  31 16 154  62 97 126  44 22 151  147 7 41  6 17 153  134 124 144  137 22 24  96 128 150  120 76 131  42 90 91  49 50 130  20 108 153  65 140 155  10 108 56  35 117 127  89 90 72  77 27 123  31 75 155  65 75 155  31 154 155  14 8 150  137 8 150  87 152 129  147 152 129  140 154 155  57 59 145  57 149 145  108 153 56  71 143 72  6 153 56  </DataArray>
<DataArray  type="UInt32"  Name="offsets"  format="ascii">3 6 9 12 15 18 21 24 27 30 33 36 39 42 45 48 51 54 57 60 63 66 69 72 75 78 81 84 87 90 93 96 99 102 105 108 111 114 117 120 123 126 129 132 135 138 141 144 147 150 153 156 159 162 165 168 171 174 177 180 183 186 189 192 195 198 201 204 207 210 213 216 219 222 225 228 231 234 237 240 243 246 249 252 255 258 261 264 267 270 273 276 279 282 285 288 291 294 297 300 303 306 309 312 315 318 321 324 327 330 333 336 339 342 345 348 351 354 357 360 363 366 369 372 375 378 381 384 387 390 393 396 399 402 405 408 411 414 417 420 423 426 429 432 435 438 441 444 447 450 453 456 459 462 465 468 471 474 477 480 483 486 489 492 495 498 501 504 507 510 513 516 519 522 525 528 531 534 537 540 543 546 549 552 555 558 561 564 567 570 573 576 579 582 585 588 591 594 597 600 603 606 609 612 615 618 621 624 627 630 633 636 639 642 645 648 651 654 657 660 663 666 669 672 675 678 681 684 687 690 693 696 699 702 705 708 711 714 717 720 723 726 729 732 735 738 741 744 747 750 753 756 759 762 765 768 771 774 777 780 783 786 789 792 795 798 </DataArray>
<DataArray  type="UInt8"  Name="types"  format="ascii">5 5 5 5 5 5 5 5 5 5 5 5 5 5 5 5 5 5 5 5 5 5 5 5 5 5 5 5 5 5 5 5 5 5 5 5 5 5 5 5 5 5 5 5 5 5 5 5 5 5 5 5 5 5 5 5 5 5 5 5 5 5 5 5 5 5 5 5 5 5 5 5 5 5 5 5 5 5 5 5 5 5 5 5 5 5 5 5 5 5 5 5 5 5 5 5 5 5 5 5 5 5 5 5 5 5 5 5 5 5 5 5 5 5 5 5 5 5 5 5 5 5 5 5 5 5 5 5 5 5 5 5 5 5 5 5 5 5 5 5 5 5 5 5 5 5 5 5 5 5 5 5 5 5 5 5 5 5 5 5 5 5 5 5 5 5 5 5 5 5 5 5 5 5 5 5 5 5 5 5 5 5 5 5 5 5 5 5 5 5 5 5 5 5 5 5 5 5 5 5 5 5 5 5 5 5 5 5 5 5 5 5 5 5 5 5 5 5 5 5 5 5 5 5 5 5 5 5 5 5 5 5 5 5 5 5 5 5 5 5 5 5 5 5 5 5 5 5 5 5 5 5 5 5 5 5 5 5 5 5 5 5 5 5 5 5 </DataArray>
</Cells>
<PointData  Vectors="d"> 
<DataArray  type="Float64"  Name="d"  NumberOfComponents="3" format="ascii">1.8128084646474953e-08 2.8653174929797702e-08 0.0000000000000000e+00  2.0427392778284895e-08 2.8044204862216279e-08 0.0000000000000000e+00  1.4964780675772446e-08 2.1544341283458732e-08 0.0000000000000000e+00  3.4304882827561331e-09 6.0451306320647904e-09 0.0000000000000000e+00  4.7884324315742617e-09 8.5765790408243769e-09 0.0000000000000000e+00  3.5836006019317183e-09 6.0120012060860367e-09 0.0000000000000000e+00  8.7208256611511329e-10 1.6282455772686523e-09 0.0000000000000000e+00  6.6931168634259985e-10 1.2265991156666525e-09 0.0000000000000000e+00  1.1426110569057285e-09 2.1085130500191934e-09 0.0000000000000000e+00  3.8642787853947945e-10 7.0111245495795591e-10 0.0000000000000000e+00  3.8737952189723287e-10 7.1627200664115010e-10 0.0000000000000000e+00  1.1149422091585072e-08 1.7558231037115576e-08 0.0000000000000000e+00  7.7261037331498511e-09 1.1852903255711444e-08 0.0000000000000000e+00  8.6397109620567261e-09 1.4979980416500909e-08 0.0000000000000000e+00  1.7755497793551261e-09 3.2929586412087978e-09 0.0000000000000000e+00  1.7897784964439052e-09 3.4293492597145064e-09 0.0000000000000000e+00  2.5605256491611850e-09 4.8596958643428751e-09 0.0000000000000000e+00  1.1515178939765956e-09 2.1941878265710137e-09 0.0000000000000000e+00  0.0000000000000000e+00 0.0000000000000000e+00 0.0000000000000000e+00  0.0000000000000000e+00 0.0000000000000000e+00 0.0000000000000000e+00  5.8908234010450474e-10 1.1375841333931084e-09 0.0000000000000000e+00  1.4412366791820914e-08 2.3547334266564090e-08 0.0000000000000000e+00  8.1140066749682180e-10 1.4499736215890368e-09 0.0000000000000000e+00  7.8796379527414336e-10 1.3850868297633957e-09 0.0000000000000000e+00  1.0832675554459015e-09 1.9372005874723232e-09 0.0000000000000000e+00  1.4030137882547306e-08 3.5109055785191000e-08 0.0000000000000000e+00  1.6684765562273988e-08 3.5326093512314797e-08 0.0000000000000000e+00  1.3003156310713704e-08 2.9461130862003695e-08 0.0000000000000000e+00  0.0000000000000000e+00 0.0000000000000000e+00 0.0000000000000000e+00  4.8321192591707066e-10 8.2401953142855538e-10 0.0000000000000000e+00  3.4818280168436611e-10 5.9728649260748690e-10 0.0000000000000000e+00  3.7303102909968246e-09 7.0221287643210917e-09 0.0000000000000000e+00  2.6294220483151336e-09 4.7905327842007507e-09 0.0000000000000000e+00  2.2552158083678115e-09 4.4673898021005166e-09 0.0000000000000000e+00  1.2221354292734234e-09 2.4073609254837527e-09 0.0000000000000000e+00  2.5785562087128504e-09 4.1635454368615586e-09 0.0000000000000000e+00  1.1562247184581915e-09 1.8692598664780137e-09 0.0000000000000000e+00  2.0780193187715496e-09 3.1383183280024161e-09 0.0000000000000000e+00  0.0000000000000000e+00 0.0000000000000000e+00 0.0000000000000000e+00  4.7182868767811966e-09 6.0116659318994673e-09 0.0000000000000000e+00  2.9953920589377905e-09 4.2141463993486094e-09 0.0000000000000000e+00  8.3256200410180976e-10 1.5094068435993383e-09 0.0000000000000000e+00  9.1464406454410026e-09 1.1483906052657153e-08 0.0000000000000000e+00  5.7878976541079062e-09 6.3362272574099667e-09 0.0000000000000000e+00  6.3893153907089277e-10 1.1226178583424338e-09 0.0000000000000000e+00  4.6791232582926201e-09 1.2120201166714288e-08 0.0000000000000000e+00  6.7836532231264529e-09 1.8522371923593619e-08 0.0000000000000000e+00  5.0011323545510108e-09 1.4782800832850975e-08 0.0000000000000000e+00  4.9957472535114878e-09 1.7265903454138445e-08 0.0000000000000000e+00  3.0811171688371369e-09 9.4417655428016956e-09 0.0000000000000000e+00  2.2352364654288337e-09 7.7710480632409449e-09 0.0000000000000000e+00  1.8972732511186065e-09 5.1456148481664796e-09 0.0000000000000000e+00  3.3851884831933533e-09 8.3380981230902768e-09 0.0000000000000000e+00  3.5324647360455506e-09 9.7169535265775963e-09 0.0000000000000000e+00  4.6903792031757882e-09 7.6330994913608329e-09 0.0000000000000000e+00  1.1578558351050160e-08 2.0976319406910328e-08 0.0000000000000000e+00  5.9468214470318960e-10 1.1098594510926768e-09 0.0000000000000000e+00  6.4336629239153449e-09 1.4281270392901966e-08 0.0000000000000000e+00  4.6987274086574282e-09 1.0663790414434432e-08 0.0000000000000000e+00  6.1597407809674918e-09 1.2616336635970485e-08 0.0000000000000000e+00  6.5135953375088850e-09 1.5757343190705799e-08 0.0000000000000000e+00  0.0000000000000000e+00 0.0000000000000000e+00 0.0000000000000000e+00  9.5161450099366206e-10 1.6413443680408273e-09 0.0000000000000000e+00  6.5560928939150352e-10 1.1319791699969951e-09 0.0000000000000000e+00  2.1934732421343359e-09 5.3611493316200663e-09 0.0000000000000000e+00  4.6731482233030113e-09 9.5983749204294219e-09 0.0000000000000000e+00  1.3083546935977845e-08 1.7582415045355767e-08 0.0000000000000000e+00  7.6056151180610289e-09 2.8057739835482990e-08 0.0000000000000000e+00  7.2841501504626470e-09 2.2670077387547519e-08 0.0000000000000000e+00  4.6923926240440900e-09 6.9443865357991915e-09 0.0000000000000000e+00  6.2434848631263049e-09 1.0242903599270495e-08 0.0000000000000000e+00  1.8098739019270478e-08 2.3392956519869769e-08 0.0000000000000000e+00  1.7298006181643353e-08 2.0371177647165664e-08 0.0000000000000000e+00  3.6647129769162271e-09 7.8687893492232483e-09 0.0000000000000000e+00  6.3818042338749719e-09 1.2190742045334372e-08 0.0000000000000000e+00  4.8697295508547635e-09 9.3208827215103291e-09 0.0000000000000000e+00  1.6822436743158998e-09 3.4437485018580567e-09 0.0000000000000000e+00  1.2748361159654630e-08 2.5906904957861303e-08 0.0000000000000000e+00  1.5272722617193533e-08 2.7618388622800606e-08 0.0000000000000000e+00  6.4908915573085189e-09 1.1418717505781538e-08 0.0000000000000000e+00  0.0000000000000000e+00 0.0000000000000000e+00 0.0000000000000000e+00  9.8910647142310781e-09 2.0713234384391324e-08 0.0000000000000000e+00  8.7755571087933317e-09 1.6865882461531788e-08 0.0000000000000000e+00  9.8220440223644931e-09 3.0509023938498301e-08 0.0000000000000000e+00  1.1017195208333168e-08 2.8356605581575882e-08 0.0000000000000000e+00  8.7524223729355588e-09 2.4137454670414500e-08 0.0000000000000000e+00  1.7075444244370076e-10 3.0403663633459767e-10 0.0000000000000000e+00  3.3108292521397892e-10 5.8724954858734485e-10 0.0000000000000000e+00  1.2102836249201373e-08 3.4418452279025480e-08 0.0000000000000000e+00  1.7321413970097937e-08 1.8461205955105174e-08 0.0000000000000000e+00  1.3300739848275413e-08 1.5809431250402015e-08 0.0000000000000000e+00  1.0134865353070243e-08 1.1201855201973886e-08 0.0000000000000000e+00  9.7075334892920776e-09 1.3861152533688411e-08 0.0000000000000000e+00  0.0000000000000000e+00 0.0000000000000000e+00 0.0000000000000000e+00  0.0000000000000000e+00 0.0000000000000000e+00 0.0000000000000000e+00  1.0799253577545628e-09 1.9084683374908342e-09 0.0000000000000000e+00  1.4773316064274138e-09 2.6351042542144313e-09 0.0000000000000000e+00  1.3183757122974709e-09 2.3057914748295940e-09 0.0000000000000000e+00  0.0000000000000000e+00 0.0000000000000000e+00 0.0000000000000000e+00  0.0000000000000000e+00 0.0000000000000000e+00 0.0000000000000000e+00  1.2352454372842521e-09 2.8283543909698291e-09 0.0000000000000000e+00  9.3902328953985029e-10 1.5976871970693215e-09 0.0000000000000000e+00  1.5459701458310358e-09 2.6512178020764401e-09 0.0000000000000000e+00  0.0000000000000000e+00 0.0000000000000000e+00 0.0000000000000000e+00  0.0000000000000000e+00 0.0000000000000000e+00 0.0000000000000000e+00  0.0000000000000000e+00 0.0000000000000000e+00 0.0000000000000000e+00  8.4838020546323397e-10 1.7463824406172064e-09 0.0000000000000000e+00  0.0000000000000000e+00 0.0000000000000000e+00 0.0000000000000000e+00  3.5768646160151962e-10 6.7463542583487696e-10 0.0000000000000000e+00  2.7270053469599961e-09 6.1252704090920504e-09 0.0000000000000000e+00  0.0000000000000000e+00 0.0000000000000000e+00 0.0000000000000000e+00  0.0000000000000000e+00 0.0000000000000000e+00 0.0000000000000000e+00  5.4848413387025085e-10 1.0904320111263997e-09 0.0000000000000000e+00  1.8976323377733533e-10 3.4625430021361691e-10 0.0000000000000000e+00  1.2066648855406760e-08 1.1727847183613418e-08 0.0000000000000000e+00  6.9614612204093739e-09 9.6370919472297499e-09 0.0000000000000000e+00  1.9435449832621120e-09 3.4089008883879620e-09 0.0000000000000000e+00  2.5636182157107693e-09 4.3665336576309659e-09 0.0000000000000000e+00  1.3032162596873086e-09 2.1880452918342788e-09 0.0000000000000000e+00  6.2582374408703781e-10 1.0471981067789067e-09 0.0000000000000000e+00  1.5509095670804618e-09 3.3241869676970922e-09 0.0000000000000000e+00  1.8077473547273353e-08 3.3059273222986495e-08 0.0000000000000000e+00  8.8207627400618614e-09 2.1373222370883613e-08 0.0000000000000000e+00  1.5071837204835296e-08 3.0403284269510481e-08 0.0000000000000000e+00  0.0000000000000000e+00 0.0000000000000000e+00 0.0000000000000000e+00  0.0000000000000000e+00 0.0000000000000000e+00 0.0000000000000000e+00  9.7585911803616092e-10 1.7045229678901088e-09 0.0000000000000000e+00  1.8905698661725663e-09 3.1464064788153547e-09 0.0000000000000000e+00  1.9862508044228318e-09 3.5796044160658502e-09 0.0000000000000000e+00  4.8057174516145495e-10 8.6436104210765887e-10 0.0000000000000000e+00  1.3862288828090789e-09 4.3155433568089260e-09 0.0000000000000000e+00  2.4176936864061491e-09 5.1023111780863592e-09 0.0000000000000000e+00  1.0332106318374253e-09 2.5643930634534448e-09 0.0000000000000000e+00  5.5175026222909662e-09 5.0853444978103284e-09 0.0000000000000000e+00  0.0000000000000000e+00 0.0000000000000000e+00 0.0000000000000000e+00  6.8435214457479800e-10 1.4781422354654721e-09 0.0000000000000000e+00  7.2959438925517139e-10 1.2698908006166277e-09 0.0000000000000000e+00  1.0817900103309733e-09 1.9628219131850032e-09 0.0000000000000000e+00  0.0000000000000000e+00 0.0000000000000000e+00 0.0000000000000000e+00  3.6205234594586578e-09 5.6938022423982021e-09 0.0000000000000000e+00  3.3008471797352378e-09 6.7429015955835194e-09 0.0000000000000000e+00  2.3727414585782755e-08 2.8558265418788754e-08 0.0000000000000000e+00  2.4004575464706709e-08 2.5132035912584798e-08 0.0000000000000000e+00  2.0891947570111343e-08 2.4513191506682917e-08 0.0000000000000000e+00  1.7716312674230991e-10 3.2884577265879205e-10 0.0000000000000000e+00  7.5790711697336871e-09 1.5662579198367292e-08 0.0000000000000000e+00  1.1060195010502843e-08 2.5174379560874942e-08 0.0000000000000000e+00  6.2605861334428999e-10 1.1249128841414051e-09 0.0000000000000000e+00  2.5629999553467941e-09 4.5244737049743384e-09 0.0000000000000000e+00  7.9726258654931544e-09 1.7785180273246772e-08 0.0000000000000000e+00  1.4161005975122854e-09 2.5725034545239987e-09 0.0000000000000000e+00  6.0556421915818585e-10 1.0727088785245229e-09 0.0000000000000000e+00  4.5668989275703328e-10 8.0763890429313353e-10 0.0000000000000000e+00  7.1349245907897893e-10 1.3503184471189271e-09 0.0000000000000000e+00  3.1576542936153153e-09 6.1608925216987774e-09 0.0000000000000000e+00  3.9531544172240017e-09 7.7944535992644669e-09 0.0000000000000000e+00  </DataArray> 
</PointData> 
</Piece>
</UnstructuredGrid>
</VTKFile>