<?xml version="1.0"?>
<VTKFile type="UnstructuredGrid"  version="0.1"  >
<UnstructuredGrid>
<Piece  NumberOfPoints="160" NumberOfCells="269">
<Points>
<DataArray  type="Float64"  NumberOfComponents="3"  format="ascii">0.4209459958937618 0.1900705467410679 0  0.4203288757075808 0.200008468793218 0  0.4263710172571613 0.1964433209040167 0  0.414771475357784 0.1962156580871962 0  0.4209107725175167 0.2099562286055648 0  0.4147583647049477 0.2038071046768063 0  0.4264469520204115 0.203648030616956 0  0.4471383727176693 0.2000160315562546 0  0.4396575448882741 0.1971247545435716 0  0.4396683076845234 0.2040749587617382 0  0.3947650241309401 0.2000088290356483 0  0.4021540020261206 0.2035403889764312 0  0.4021562510096834 0.1960130197234464 0  0.3872827014230119 0.2029042303964403 0  0.3872903220487107 0.1959511202822615 0  0.4546306875057599 0.1971284944579738 0  0.4546060922187666 0.2040618916242324 0  0.4091201143808011 0.1998803623572464 0  0.4324787010847205 0.2001399898085688 0  0.3984812807117106 0.2099632582499318 0  0.4059570357452679 0.2099611265214124 0  0.4433850586698944 0.19008358604092 0  0.435904503837751 0.1900789082330013 0  0.4134642404987854 0.1900655269957464 0  0.4134329647768497 0.209958951397594 0  0.4284240873705609 0.190074299561481 0  0.4471177569676418 0.2056732458647329 0  0.3947723444906713 0.1943384811480014 0  0.4321552475046842 0.2056753465301592 0  0.4283851629984417 0.2099545942193819 0  0.4092211893227429 0.1944475503496665 0  0.3910059263510137 0.20996528592964 0  0.3947592736984297 0.2056800637921046 0  0.4508657051190271 0.1900884396271575 0  0.447154672086803 0.1943594787401672 0  0.4324468231055075 0.194632837550462 0  0.4094361181302294 0.2055742759840692 0  0.3910277701058671 0.1900535859871184 0  0.3835500011526762 0.190049988131501 0  0.4508140810521674 0.2099479318330941 0  0.458290851326874 0.2099455489985641 0  0.4059848233287312 0.1900613275519065 0  0.3985060128992427 0.1900573505653934 0  0.4358611257824102 0.2099524843424418 0  0.4433375321115318 0.2099502300125539 0  0.4621334940561491 0.2471134632091465 0  0.4745609339151821 0.2566183900745826 0  0.471975761236072 0.2448150842562364 0  0.4015831744566628 0.2240264927619836 0  0.4022152387240387 0.2164936961352728 0  0.3947403179353957 0.2157849102142509 0  0.4321093609242924 0.2259431727276575 0  0.4421649330417682 0.2303146812497385 0  0.4275746970939165 0.2358105003735248 0  0.4422707963988252 0.3061710602231965 0  0.418150308629537 0.3242996923742825 0  0.4126828379797706 0.2990290600214116 0  0.4303055412695755 0.287944920338962 0  0.3910790615755896 0.2226031635022138 0  0.5378764692180807 0.3216964476493904 0  0.5085254848215168 0.3444250166532736 0  0.5126586528262118 0.3152719351723879 0  0.4680756554229694 0.2938418425707629 0  0.4506013838751958 0.2799281426200325 0  0.4334291501249152 0.2707261649976942 0  0.4117990363600421 0.2792108456845797 0  0.4221038982181963 0.261471844577308 0  0.3939111864248468 0.3095325071066313 0  0.3642019297286452 0.3179524358513406 0  0.3935373518238886 0.3350413889378973 0  0.5897687235537654 0.3059030965935282 0  0.5680075012837561 0.2847786542586249 0  0.5562533085802458 0.3041269431025937 0  0.47084293385714 0.3485932958175774 0  0.4787937067557441 0.3785314426038541 0  0.4393239031279063 0.2184578986820722 0  0.3755597851839157 0.2925681323905875 0  0.4627900691922368 0.2175052328142433 0  0.4545716465649811 0.2177323133329783 0  0.4620008666533996 0.226245905930128 0  0.6035244466981304 0.3406453797146352 0  0.5684591933945403 0.3290424228498871 0  0.4602662203937314 0.2625016366832718 0  0.4714655468532765 0.2745163588165876 0  0.4167814038829756 0.2315818641759036 0  0.41416177743739 0.2417230536037134 0  0.4539289407988911 0.2283466814978814 0  0.4471982627713936 0.2213975859826202 0  0.4092958587395675 0.253879916658463 0  0.4021702414205326 0.2412684347217613 0  0.3934427756111954 0.249909759848847 0  0.447056296357259 0.2151857776675697 0  0.541675342569381 0.3526625240110997 0  0.3872493520399481 0.1813993274544606 0  0.3872729713332903 0.1622543112032422 0  0.4006001261611562 0.1566373573853879 0  0.384038042823129 0.1491190444081175 0  0.4321894746865151 0.1814224311217688 0  0.4387742797763783 0.2427272180622208 0  0.4896615327600034 0.3280333497818061 0  0.398661978464786 0.2667453487149642 0  0.5173408709338306 0.3796834241261232 0  0.4245747253641123 0.2175607690747138 0  0.4321182899994387 0.2155829411991171 0  0.4853572560290009 0.2693128948487433 0  0.3983431013788015 0.2897512313067034 0  0.4904943663972875 0.3067638608017861 0  0.4893336963624333 0.2873456557591043 0  0.4192789542889371 0.3546296601323827 0  0.4444976078087539 0.3371671555645964 0  0.4460350642986758 0.3720627984364175 0  0.4677175071889559 0.3188989402363374 0  0.4653848999128273 0.2342060535390145 0  0.4512041304713498 0.2400172459363781 0  0.4245368206022875 0.248218267049991 0  0.3718101002042793 0.3492839638529956 0  0.4096900980575772 0.2173932127599063 0  0.4106450246495218 0.2658490897472766 0  0.5869673343225223 0.41 0  0.5770912429826314 0.362936829966345 0  0.5527307577257307 0.3828405526919854 0  0.4490096714236335 0.2527301055508501 0  0.3766304697917419 0.3830536624150844 0  0.4149772340633825 0.3834624079158854 0  0.3949797572734456 0.3601060085118391 0  0.5071856820523418 0.2805261249541437 0  0.3952923453076411 0.2310306067819929 0  0.4067174306577336 0.2328993363201264 0  0.487218105743225 0.2510641123509851 0  0.4097077337133762 0.1690940201936207 0  0.3976519345123296 0.1661047074781727 0  0.4098364764688976 0.1594155722062887 0  0.435826422481544 0.255813219334759 0  0.4022405598021242 0.1827302375932989 0  0.421758858616053 0.1661155297491385 0  0.4171979350209595 0.1827381520248379 0  0.4103640744733904 0.2256123374181376 0  0.5293250525632207 0.2936680576319382 0  0.5488963563849727 0.2837679002951498 0  0.3947585554697648 0.1838225268309618 0  0.4237474496845054 0.2261815274078967 0  0.424682784191346 0.1838384037562975 0  0.4171210031628607 0.2217114911098299 0  0.5115442537278833 0.2974063427225832 0  0.3947581543718444 0.1755888009163155 0  0.4246694163101138 0.175603472973418 0  0.4895008759292634 0.41 0  0.4433053055145528 0.41 0  0.4097155261697785 0.1783925023827626 0  0.4028647159930275 0.1744178340890376 0  0.4165600266481585 0.1744245034996521 0  0.3871414255980091 0.1712282294358894 0  0.5373680609412221 0.41 0  0.4321515623548237 0.1713292282912875 0  0.3987229542475914 0.41 0  0.3556974926297398 0.41 0  0.4462025938046264 0.2651716587862058 0  0.4171677412374889 0.2148762490658939 0  0.40972065281979 0.1849729911659046 0  0.4689514680788378 0.2234046189299225 0  </DataArray>
</Points>
<Cells>
<DataArray  type="UInt32"  Name="connectivity"  format="ascii">0 1 2  0 1 3  4 1 5  4 1 6  7 8 9  10 11 12  10 13 14  7 15 16  17 11 12  18 8 9  19 20 11  21 22 8  0 23 3  24 4 5  25 0 2  7 9 26  10 12 27  10 14 27  7 16 26  18 9 28  4 29 6  17 12 30  31 13 32  33 15 34  19 11 32  10 11 32  10 13 32  7 15 34  21 8 34  7 8 34  22 8 35  18 8 35  20 11 36  17 11 36  37 38 14  39 40 16  41 42 12  43 44 9  18 2 6  1 2 6  37 14 27  42 12 27  39 16 26  44 9 26  43 9 28  1 5 3  17 5 3  41 12 30  18 6 28  23 41 30  20 24 36  42 37 27  44 39 26  29 43 28  31 19 32  33 21 34  22 25 35  29 6 28  25 2 35  18 2 35  23 3 30  24 5 36  17 5 36  17 3 30  45 46 47  48 49 50  51 52 53  54 55 56  54 57 56  48 58 50  59 60 61  54 62 63  64 65 66  67 68 69  70 71 72  73 60 74  43 44 75  67 68 76  77 78 79  54 57 63  70 80 81  64 65 57  82 46 83  84 53 85  86 87 78  82 45 46  88 89 90  44 75 91  59 60 92  37 38 93  94 95 96  22 25 97  98 52 53  73 60 99  87 75 52  88 100 90  86 78 79  86 87 52  60 101 74  51 102 103  104 46 83  65 100 105  106 62 107  108 109 110  106 62 111  86 112 113  98 114 53  115 68 69  67 55 56  48 116 49  51 75 52  64 57 63  54 62 111  86 52 113  65 66 117  118 119 120  82 45 121  70 81 72  73 109 110  114 53 85  122 123 124  67 55 69  125 104 107  59 92 81  108 55 69  119 80 81  54 55 109  48 126 127  46 128 47  48 58 126  20 24 116  4 29 102  98 121 113  108 55 109  129 130 131  89 126 127  98 114 132  41 42 133  129 134 131  0 23 135  48 116 136  67 76 105  137 138 72  104 46 128  37 93 139  51 102 140  25 97 141  45 121 113  88 114 85  45 112 113  84 142 136  84 142 140  106 61 99  94 95 130  40 77 78  125 137 143  87 75 91  54 111 109  73 111 109  84 53 140  62 107 83  51 75 103  144 133 139  51 53 140  88 114 66  82 63 83  145 135 141  104 107 83  59 137 72  146 147 74  98 52 113  39 40 78  60 92 101  88 89 85  129 148 149  147 110 74  129 148 150  98 121 132  19 20 49  129 149 130  73 111 99  144 93 151  43 75 103  42 37 139  95 130 131  25 0 141  129 150 134  65 100 117  152 146 101  60 61 99  145 97 153  20 116 49  119 92 81  114 66 132  154 155 122  144 133 149  84 85 127  108 69 124  65 57 56  59 137 61  42 133 139  145 135 150  0 135 141  118 152 120  108 123 124  144 130 151  121 132 156  29 102 103  154 122 123  24 116 157  4 102 157  59 81 72  145 134 153  41 133 158  144 93 139  23 135 158  125 107 143  64 66 132  82 63 156  64 132 156  64 63 156  31 19 50  147 154 123  145 97 141  159 112 79  29 43 103  19 49 50  94 130 151  146 101 74  62 63 83  115 122 124  106 111 99  106 107 143  39 78 91  84 136 127  92 101 120  86 112 79  144 149 130  45 112 47  82 121 156  89 85 127  145 150 134  24 4 157  142 116 136  148 133 149  142 102 140  148 135 150  73 110 74  142 116 157  71 138 72  142 102 157  23 41 158  87 78 91  44 39 91  159 77 79  148 133 158  148 135 158  106 61 143  137 61 143  119 92 120  88 100 117  108 110 123  65 56 105  48 136 127  152 101 120  115 69 124  67 56 105  147 110 123  88 66 117  </DataArray>
<DataArray  type="UInt32"  Name="offsets"  format="ascii">3 6 9 12 15 18 21 24 27 30 33 36 39 42 45 48 51 54 57 60 63 66 69 72 75 78 81 84 87 90 93 96 99 102 105 108 111 114 117 120 123 126 129 132 135 138 141 144 147 150 153 156 159 162 165 168 171 174 177 180 183 186 189 192 195 198 201 204 207 210 213 216 219 222 225 228 231 234 237 240 243 246 249 252 255 258 261 264 267 270 273 276 279 282 285 288 291 294 297 300 303 306 309 312 315 318 321 324 327 330 333 336 339 342 345 348 351 354 357 360 363 366 369 372 375 378 381 384 387 390 393 396 399 402 405 408 411 414 417 420 423 426 429 432 435 438 441 444 447 450 453 456 459 462 465 468 471 474 477 480 483 486 489 492 495 498 501 504 507 510 513 516 519 522 525 528 531 534 537 540 543 546 549 552 555 558 561 564 567 570 573 576 579 582 585 588 591 594 597 600 603 606 609 612 615 618 621 624 627 630 633 636 639 642 645 648 651 654 657 660 663 666 669 672 675 678 681 684 687 690 693 696 699 702 705 708 711 714 717 720 723 726 729 732 735 738 741 744 747 750 753 756 759 762 765 768 771 774 777 780 783 786 789 792 795 798 801 804 807 </DataArray>
<DataArray  type="UInt8"  Name="types"  format="ascii">5 5 5 5 5 5 5 5 5 5 5 5 5 5 5 5 5 5 5 5 5 5 5 5 5 5 5 5 5 5 5 5 5 5 5 5 5 5 5 5 5 5 5 5 5 5 5 5 5 5 5 5 5 5 5 5 5 5 5 5 5 5 5 5 5 5 5 5 5 5 5 5 5 5 5 5 5 5 5 5 5 5 5 5 5 5 5 5 5 5 5 5 5 5 5 5 5 5 5 5 5 5 5 5 5 5 5 5 5 5 5 5 5 5 5 5 5 5 5 5 5 5 5 5 5 5 5 5 5 5 5 5 5 5 5 5 5 5 5 5 5 5 5 5 5 5 5 5 5 5 5 5 5 5 5 5 5 5 5 5 5 5 5 5 5 5 5 5 5 5 5 5 5 5 5 5 5 5 5 5 5 5 5 5 5 5 5 5 5 5 5 5 5 5 5 5 5 5 5 5 5 5 5 5 5 5 5 5 5 5 5 5 5 5 5 5 5 5 5 5 5 5 5 5 5 5 5 5 5 5 5 5 5 5 5 5 5 5 5 5 5 5 5 5 5 5 5 5 5 5 5 5 5 5 5 5 5 5 5 5 5 5 5 5 5 5 5 5 5 </DataArray>
</Cells>
<PointData  Vectors="d"> 
<DataArray  type="Float64"  Name="d"  NumberOfComponents="3" format="ascii">3.9546118347439761e-07 4.4482906241804598e-08 0.0000000000000000e+00  3.2945632302085532e-07 1.5763920635338598e-08 0.0000000000000000e+00  3.6799011457370319e-07 2.8639918974437192e-08 0.0000000000000000e+00  3.2965564600519071e-07 2.3059301632849217e-08 0.0000000000000000e+00  3.0499888891581672e-07 -7.5371707765504568e-09 0.0000000000000000e+00  2.9793758005874093e-07 7.4365809664299546e-09 0.0000000000000000e+00  3.3292091695233940e-07 5.3381860991796868e-09 0.0000000000000000e+00  4.2636650400622251e-07 2.1163391673311312e-08 0.0000000000000000e+00  4.1494017817826681e-07 3.2179081661220689e-08 0.0000000000000000e+00  3.7502083393249575e-07 1.7806258404518213e-09 0.0000000000000000e+00  2.5580102328596585e-07 1.2365699583210449e-08 0.0000000000000000e+00  2.6476271203267227e-07 9.4468337574918601e-09 0.0000000000000000e+00  2.9148710881330946e-07 1.8153157192523215e-08 0.0000000000000000e+00  2.2991067952652844e-07 1.1333289502624071e-08 0.0000000000000000e+00  2.5046613380281533e-07 1.2447618188980809e-08 0.0000000000000000e+00  4.8091648484148520e-07 4.0342322553458900e-08 0.0000000000000000e+00  4.3154871591704522e-07 -1.3472545663775362e-09 0.0000000000000000e+00  2.9553880562260290e-07 1.4324001016917352e-08 0.0000000000000000e+00  3.6917292105542896e-07 1.7361660510968570e-08 0.0000000000000000e+00  2.4671625908775204e-07 5.6802553859185692e-09 0.0000000000000000e+00  2.6457176784221984e-07 1.3933226277477704e-09 0.0000000000000000e+00  4.9066378955445353e-07 7.2134829573195883e-08 0.0000000000000000e+00  4.5650872740798897e-07 6.2382796820793784e-08 0.0000000000000000e+00  3.6478566488058447e-07 3.7329894304645349e-08 0.0000000000000000e+00  2.8338862202645964e-07 -3.1943658305482150e-09 0.0000000000000000e+00  4.2397153775966274e-07 5.3303293702454457e-08 0.0000000000000000e+00  3.9402622180764109e-07 -7.9031086270807513e-09 0.0000000000000000e+00  2.7732138232919817e-07 1.6641640332608460e-08 0.0000000000000000e+00  3.4360674561556520e-07 -2.4309380192851201e-09 0.0000000000000000e+00  3.2335070585836038e-07 -1.3243294739769813e-08 0.0000000000000000e+00  3.2083239186443523e-07 2.4254397744761998e-08 0.0000000000000000e+00  2.2982552148181997e-07 9.8210098666910354e-09 0.0000000000000000e+00  2.4156701922419030e-07 9.2230708811840303e-09 0.0000000000000000e+00  5.2700269489052526e-07 8.2638931610754990e-08 0.0000000000000000e+00  4.6857177846656651e-07 5.2510877668065523e-08 0.0000000000000000e+00  4.0303544380357108e-07 3.8965927621322066e-08 0.0000000000000000e+00  2.7847420640035615e-07 5.3016419669485380e-09 0.0000000000000000e+00  2.8861876017337409e-07 1.7569712762955642e-08 0.0000000000000000e+00  2.6645038247353109e-07 1.1893582552148759e-08 0.0000000000000000e+00  3.9059035969538836e-07 -3.0981733369773911e-08 0.0000000000000000e+00  4.1545824989908036e-07 -3.7546927412792459e-08 0.0000000000000000e+00  3.3759880262418096e-07 3.0263648857275858e-08 0.0000000000000000e+00  3.1231689790818333e-07 2.3695655346663307e-08 0.0000000000000000e+00  3.4447178299722303e-07 -1.8871628963723646e-08 0.0000000000000000e+00  3.6688065744330058e-07 -2.4754027759479522e-08 0.0000000000000000e+00  3.5180324040240292e-07 -3.6002589043024337e-08 0.0000000000000000e+00  3.5654257722968899e-07 -4.0872398759977156e-08 0.0000000000000000e+00  3.8111938278500874e-07 -4.2900886047560647e-08 0.0000000000000000e+00  2.4407435933705614e-07 2.4997942326506468e-10 0.0000000000000000e+00  2.5120778417222260e-07 1.7609750971163503e-09 0.0000000000000000e+00  2.3475850683054664e-07 5.9297577749769681e-09 0.0000000000000000e+00  3.1459263764698091e-07 -1.7887940463471675e-08 0.0000000000000000e+00  3.3413980408575190e-07 -2.4736814868736491e-08 0.0000000000000000e+00  2.9028831270589281e-07 -1.5768835428424293e-08 0.0000000000000000e+00  1.9470562292134061e-07 -1.6725151606451186e-08 0.0000000000000000e+00  1.3839740613237432e-07 -9.1230975973450213e-09 0.0000000000000000e+00  1.7196631549413310e-07 -9.5925336346548878e-09 0.0000000000000000e+00  2.1280157118341210e-07 -1.5487376645126199e-08 0.0000000000000000e+00  2.2262921770357436e-07 5.8287054024886076e-09 0.0000000000000000e+00  2.2951949020600787e-07 -2.8265815687223281e-08 0.0000000000000000e+00  1.5762376982268654e-07 -1.8335305536297944e-08 0.0000000000000000e+00  2.3821480316446338e-07 -2.9340975179462538e-08 0.0000000000000000e+00  2.5251703588978363e-07 -2.6865176763350039e-08 0.0000000000000000e+00  2.5832967747804459e-07 -2.3847092759451575e-08 0.0000000000000000e+00  2.4743234365705745e-07 -1.8117393731532195e-08 0.0000000000000000e+00  1.9967490574992667e-07 -9.7895392943039109e-09 0.0000000000000000e+00  2.4229745396655747e-07 -1.3704585954879994e-08 0.0000000000000000e+00  1.3648400356681788e-07 -5.0767734036946306e-09 0.0000000000000000e+00  9.9202213670829973e-08 -4.2277778932235207e-10 0.0000000000000000e+00  1.0262861726967294e-07 -4.4788140340349611e-09 0.0000000000000000e+00  2.6690808888560571e-07 -2.8271656850240105e-08 0.0000000000000000e+00  3.5142757734097244e-07 -4.5251241288826171e-08 0.0000000000000000e+00  2.8615327058715658e-07 -3.5900720797633107e-08 0.0000000000000000e+00  1.3012871258053039e-07 -1.3431536422080088e-08 0.0000000000000000e+00  6.7832509636449242e-08 -7.1001699962782037e-09 0.0000000000000000e+00  3.4387324530790213e-07 -2.2350700092148142e-08 0.0000000000000000e+00  1.3603402423040937e-07 -7.5937414568881025e-10 0.0000000000000000e+00  4.1668322915342605e-07 -4.1171525413884032e-08 0.0000000000000000e+00  3.9011811655079746e-07 -3.4199469209031169e-08 0.0000000000000000e+00  3.9674536497402099e-07 -3.9532667927886077e-08 0.0000000000000000e+00  1.6371152934728633e-07 -1.4957738136534835e-08 0.0000000000000000e+00  2.0766104841881580e-07 -2.3549595564713206e-08 0.0000000000000000e+00  3.1300691275854113e-07 -3.1633568740048985e-08 0.0000000000000000e+00  3.0468546993304299e-07 -3.3705891943514724e-08 0.0000000000000000e+00  2.7081558334142575e-07 -9.2494694137647235e-09 0.0000000000000000e+00  2.5333396649489540e-07 -9.0605073025287384e-09 0.0000000000000000e+00  3.6930163073053668e-07 -3.3125928643676105e-08 0.0000000000000000e+00  3.6201911325537638e-07 -2.8339348914627416e-08 0.0000000000000000e+00  2.2909563175264326e-07 -7.9220932178780710e-09 0.0000000000000000e+00  2.2959273717188756e-07 -3.3340727543008374e-09 0.0000000000000000e+00  2.0475931720560261e-07 -1.0387010686108603e-09 0.0000000000000000e+00  3.7090726614956973e-07 -2.8102668397258221e-08 0.0000000000000000e+00  1.4356818880047438e-07 -1.6631043003879969e-08 0.0000000000000000e+00  2.7357966583504859e-07 1.7488929941421365e-08 0.0000000000000000e+00  2.5973595283841878e-07 2.1828184975523969e-08 0.0000000000000000e+00  2.8892661290150857e-07 3.1537216917503067e-08 0.0000000000000000e+00  2.3874622451989067e-07 2.1532074580810447e-08 0.0000000000000000e+00  4.2816212592149442e-07 5.8697304931909312e-08 0.0000000000000000e+00  3.0569567681860872e-07 -2.2376923691041356e-08 0.0000000000000000e+00  1.8939913857713645e-07 -2.1520909624601723e-08 0.0000000000000000e+00  1.9554829684865423e-07 -4.8920388287189499e-09 0.0000000000000000e+00  7.2342002623154471e-08 -8.1833620265562787e-09 0.0000000000000000e+00  3.0540634006257799e-07 -1.1876969147139719e-08 0.0000000000000000e+00  3.2743686746045578e-07 -1.6834991594503334e-08 0.0000000000000000e+00  3.4234085206538936e-07 -4.1707300259759800e-08 0.0000000000000000e+00  1.6695552780442362e-07 -5.9261568245958350e-09 0.0000000000000000e+00  2.4487764599460455e-07 -2.8815904905233786e-08 0.0000000000000000e+00  2.9685806214786150e-07 -3.5902590750058291e-08 0.0000000000000000e+00  9.0078480333403287e-08 -6.2809111740983660e-09 0.0000000000000000e+00  1.3703388652261739e-07 -1.2079362688769089e-08 0.0000000000000000e+00  7.1309443337067205e-08 -6.3421304693884485e-09 0.0000000000000000e+00  1.9402583519271808e-07 -2.0173012537065884e-08 0.0000000000000000e+00  3.8928303410876114e-07 -4.0825352219900979e-08 0.0000000000000000e+00  3.4011088021718545e-07 -3.0173075351380523e-08 0.0000000000000000e+00  2.6630850000089422e-07 -1.4663802841986520e-08 0.0000000000000000e+00  7.1023248622655243e-08 -1.7302880438751519e-09 0.0000000000000000e+00  2.6813473624513507e-07 -2.6864207759367458e-09 0.0000000000000000e+00  2.1618460129854077e-07 -9.1510363858814104e-09 0.0000000000000000e+00  0.0000000000000000e+00 0.0000000000000000e+00 0.0000000000000000e+00  1.1511803908635735e-07 -1.2000694097566520e-08 0.0000000000000000e+00  6.6731633575265030e-08 -7.3656388098454306e-09 0.0000000000000000e+00  3.1041455191243112e-07 -2.7385126316981180e-08 0.0000000000000000e+00  3.3014004949264068e-08 -1.1476197241005934e-09 0.0000000000000000e+00  4.2054768952821705e-08 -2.8507972320059167e-09 0.0000000000000000e+00  6.9415213822182438e-08 -3.4189251515071392e-09 0.0000000000000000e+00  3.3995155792573153e-07 -4.4742759361300148e-08 0.0000000000000000e+00  2.2512831775953353e-07 1.7409386497766982e-09 0.0000000000000000e+00  2.4726179858480067e-07 -4.1410661719536225e-09 0.0000000000000000e+00  4.0005035375846787e-07 -5.0488282793335140e-08 0.0000000000000000e+00  3.3100698776214661e-07 3.7618636316429728e-08 0.0000000000000000e+00  2.9155219446031667e-07 2.8457715209720488e-08 0.0000000000000000e+00  3.1867788300831383e-07 3.8323841594666851e-08 0.0000000000000000e+00  2.7742946560120417e-07 -2.0209397912911567e-08 0.0000000000000000e+00  3.2019366770195555e-07 2.8950268372165780e-08 0.0000000000000000e+00  3.6600826890679186e-07 4.8389327438683703e-08 0.0000000000000000e+00  3.7224818764612812e-07 4.2572247747838985e-08 0.0000000000000000e+00  2.6240415604061863e-07 -4.7583127855829549e-09 0.0000000000000000e+00  3.1528758206004582e-07 -4.1831938647054755e-08 0.0000000000000000e+00  3.5834230878162451e-07 -4.8906518361786599e-08 0.0000000000000000e+00  2.9715960523876683e-07 2.2536954516095587e-08 0.0000000000000000e+00  2.9346341130482590e-07 -1.2609141370532942e-08 0.0000000000000000e+00  4.0186018461204965e-07 5.0085009769224740e-08 0.0000000000000000e+00  2.8225491123857811e-07 -7.9129475993230876e-09 0.0000000000000000e+00  2.9060219122269531e-07 -3.7173414520066660e-08 0.0000000000000000e+00  2.9167158602455088e-07 2.4583886058952752e-08 0.0000000000000000e+00  3.9064382749574744e-07 5.0936275703718895e-08 0.0000000000000000e+00  0.0000000000000000e+00 0.0000000000000000e+00 0.0000000000000000e+00  0.0000000000000000e+00 0.0000000000000000e+00 0.0000000000000000e+00  3.4132083880313669e-07 3.6362762798551445e-08 0.0000000000000000e+00  3.1525869801546298e-07 3.1210121256130007e-08 0.0000000000000000e+00  3.6021553172714191e-07 4.3149604939024675e-08 0.0000000000000000e+00  2.6682772381951868e-07 2.0023121624211751e-08 0.0000000000000000e+00  0.0000000000000000e+00 0.0000000000000000e+00 0.0000000000000000e+00  4.1137071403043872e-07 5.8722357388060144e-08 0.0000000000000000e+00  0.0000000000000000e+00 0.0000000000000000e+00 0.0000000000000000e+00  0.0000000000000000e+00 0.0000000000000000e+00 0.0000000000000000e+00  2.8046103649316615e-07 -2.4317049269636644e-08 0.0000000000000000e+00  2.8914227294371598e-07 -6.5744457855569257e-09 0.0000000000000000e+00  3.4720663483678831e-07 3.5056622933272686e-08 0.0000000000000000e+00  4.2422170511911709e-07 -4.5699356871743643e-08 0.0000000000000000e+00  </DataArray> 
</PointData> 
</Piece>
</UnstructuredGrid>
</VTKFile>