<?xml version="1.0"?>
<VTKFile type="UnstructuredGrid"  version="0.1"  >
<UnstructuredGrid>
<Piece  NumberOfPoints="161" NumberOfCells="269">
<Points>
<DataArray  type="Float64"  NumberOfComponents="3"  format="ascii">1.835188936345134 0.2050000000000447 0  1.838465412967197 0.295314555385231 0  1.915883512473173 0.2050000000000556 0  1.833166318986123 0.1007828475280069 0  2.383594446803656 0.41 0  2.271253957291315 0.41 0  2.346386298105263 0.3062476289039512 0  1.943162250261141 0.2848182236928725 0  1.943162250261135 0.1251817763071656 0  2.244824738199097 0.3091885999356257 0  1.317087908069118 0.2834507950748733 0  1.416789257258765 0.3075294577732005 0  1.357724299040056 0.2303555143478168 0  2.383594446803425 -5.021154913632117e-33 0  2.301748441448983 0.1032848369023009 0  2.415100580332905 0.0836700740267589 0  0.8836120044056411 0.2044999257419786 0  0.941405262984559 0.2275541950452047 0  0.8724873573118848 0.2505182729402529 0  1.674965418778818 0.41 0  1.58737143976041 0.41 0  1.61730464787195 0.3102553946316223 0  1.587371439758838 -8.166796696636342e-29 0  1.674965418777374 -1.451809439417788e-29 0  1.627799041349816 0.08170835291161996 0  1.122434100544716 0.41 0  1.06889491335974 0.3396995435891201 0  1.154144739342909 0.3428674566122126 0  0.9084404882824486 0.2892191223545562 0  1.215451113853214 0.2103314603328 0  1.249863529964714 0.2672258935252546 0  1.176331347572742 0.2754551993562432 0  2.012530888700015 0.2050000000000442 0  0.9882218810956305 0.41 0  0.9246101326886647 0.41 0  0.9513232956684915 0.3442387966189236 0  1.419591277297665 0.2049999999993988 0  0.8632198139519631 0.41 0  0.8825137728864838 0.3520608410039948 0  0.8202234869950367 0.3645910280207331 0  1.421253448505726 0.41 0  1.355827918101247 0.3414955155602287 0  1.421253448503939 -8.037609632433919e-29 0  1.418271536314511 0.0935356297292048 0  1.355827918101149 0.06850448443862922 0  0.8502354418963313 0.1560244879333602 0  0.9215858179863523 0.1737964996734435 0  0.9080221499441619 0.1220333110965077 0  1.122434100542598 -8.962373286574168e-28 0  1.070453094846146 0.06960241275557731 0  1.154904552426514 0.06969164993327356 0  1.017753695738236 0.3624508760139062 0  2.271253957290865 -1.062276247302594e-30 0  0.8363367911956828 0.3257327954726772 0  1.05413544556068 0.41 0  2.22179412115256 0.1933168506090047 0  2.144113444907121 0.1276195594235342 0  2.20472152769965 0.07132818755627336 0  1.002160515171284 0.1007971030835418 0  1.051646085566958 0.1501053523872934 0  2.162836591190598 0.41 0  2.147307993563105 0.2912592059815121 0  0.8757744372196093 0.06809678996645696 0  0.9457932773944753 0.06679896009908406 0  1.054135445558498 -8.743502668899438e-28 0  2.038256300678321 0.3084533810542162 0  2.047027225616217 0.1093313109621351 0  0.9246101326867038 5.532432036177805e-27 0  0.9882218810934433 -1.238462388624241e-27 0  1.005346589807355 0.3067901807594398 0  1.048577150446324 0.2582185237234855 0  1.481410117014621 0.06937107043203258 0  1.481410117014834 0.340628929567761 0  1.112767688415828 0.1251261100491478 0  1.171970583874112 0.154608762283133 0  1.524155460997646 0.2819410593005494 0  1.564450317522144 0.2271796767813218 0  1.465985145566213 0.2641043271699718 0  1.342519516048286 0.41 0  1.266535089881505 0.41 0  1.274599158298645 0.3398495556118312 0  1.266535089879536 -1.245836429647432e-27 0  1.342519516046404 -1.889213464515006e-28 0  1.279016580461914 0.07083697001590158 0  0.8625643833425286 0.2947679370597086 0  1.212819991032662 0.3139909211182522 0  1.019068245940997 0.04693372022285406 0  2.108400983319525 0.2055533675589512 0  0.9665635209272176 0.1540989494168117 0  1.00847262782663 0.2049999999856599 0  1.111528583331486 0.2818863422844448 0  2.373655112860451 0.1537499999996174 0  1.628719644697744 0.2049999999997188 0  1.211433695888456 0.1017136889190886 0  1.701137648393068 0.3376494258761063 0  1.700761363836505 0.07263158433292594 0  2.102498890674863 0.3526963313409869 0  1.146963556874549 0.222066207087579 0  1.313454781191733 0.1289288827364033 0  1.297747271074986 0.2033748759223691 0  1.375324131717863 0.1546989106155237 0  0.7991030424734017 0.1996369747301463 0  0.7970763260061912 0.1414049768176335 0  1.084668006191491 0.2128250251205175 0  1.545933585256651 0.3495591173404682 0  1.675302090383808 0.2650203692235624 0  1.552569533868173 0.06245280137837989 0  1.193204177143353 0.41 0  1.193204177141305 -4.091429489191655e-28 0  1.859776908881246 0.41 0  1.771658778367668 0.3410140663813013 0  1.859776908880082 -2.634330175738465e-30 0  1.771658778367745 0.06898593361865415 0  1.765729001826854 0.41 0  1.765729001825544 -3.948725746226034e-29 0  1.518790312518217 0.1283243218595577 0  1.503227144622305 0.2021724267140122 0  1.582623387495623 0.1516962052713071 0  0.814691563034591 0.09619193431302361 0  0.8280582783461338 0.04600943635733647 0  2.419800870255347 0.3337695350602363 0  1.118750868838095 0.1743068070851693 0  0.910812246539884 0.04113381345928185 0  0.9535181833649016 0.1113177413094839 0  0.8600276886836482 0.1096039208709595 0  0.8632198139502143 2.959524589571995e-26 0  1.255220929812108 0.1520691346896614 0  1.502836389106271 -1.894878358675981e-28 0  1.502836389107956 0.41 0  1.221368790721442 0.3632125781010317 0  1.221874249401272 0.04798078752623081 0  0.8039733463934788 0.41 0  0.9607107278980239 0.2834185756180982 0  1.731954290521326 0.2842886317692594 0  1.779077369991091 0.2291039503225897 0  0.8174223541676316 0.2698453305273931 0  0.8438935925630139 0.2159584134726932 0  2.317206511801082 0.2150857089256532 0  2.5 -1.120789968661502e-31 0  1.781967815577328 0.1551145542927008 0  2.5 0.2049999999994743 0  2.5 0.3074999999997183 0  2.416929161926448 0.232746421379242 0  2.5 0.1024999999997612 0  2.5 0.41 0  1.90940787421833 0.3475920460897339 0  1.898307784123143 0.06407818793504051 0  2.058205329870775 0.41 0  1.957227977488067 0.41 0  1.976157046732306 0.342003036433481 0  1.957227977487062 -7.57312790755752e-30 0  2.058205329869943 -3.040005884427985e-30 0  1.976157046732185 0.06799696356641441 0  1.45514143566124 0.145654406982611 0  0.9950305598504414 0.2553450661446337 0  1.728567729514086 0.1282404601139682 0  1.712479779067692 0.2028183087746493 0  2.116985070695457 0.06169297422379931 0  2.162836591189951 -1.46652150518967e-30 0  1.665417171861479 0.1438806335168954 0  2.443165304650843 0.1549388660538531 0  </DataArray>
</Points>
<Cells>
<DataArray  type="UInt32"  Name="connectivity"  format="ascii">0 1 2  0 3 2  4 5 6  7 1 2  8 3 2  5 6 9  10 11 12  13 14 15  16 17 18  19 20 21  22 23 24  25 26 27  28 17 18  29 30 31  32 7 2  32 8 2  33 34 35  36 11 12  37 38 39  40 11 41  42 43 44  16 45 46  47 45 46  48 49 50  33 35 51  52 13 14  53 38 39  25 54 26  55 56 57  58 49 59  60 61 9  10 11 41  28 35 38  47 62 63  64 48 49  32 7 65  32 8 66  67 68 63  69 26 70  42 43 71  40 11 72  73 50 74  73 49 59  75 21 76  36 11 77  78 79 80  81 82 83  28 38 84  55 14 57  78 80 41  82 83 44  85 30 31  68 63 86  32 65 87  32 66 87  58 88 59  89 88 59  90 26 70  91 14 15  92 21 76  93 50 74  89 17 88  61 65 87  56 66 87  19 21 94  23 24 95  60 61 96  29 97 31  55 61 87  55 56 87  98 99 100  90 26 27  101 45 102  69 35 51  89 103 70  75 21 104  89 103 59  92 21 105  99 12 100  73 49 50  5 60 9  20 21 104  22 24 106  17 88 46  40 78 41  82 42 44  90 103 70  58 63 86  55 61 9  107 25 27  48 108 50  109 1 110  111 3 112  90 103 97  109 113 110  114 111 112  115 116 117  118 62 119  4 6 120  103 59 121  62 63 122  34 35 38  73 59 121  116 76 117  47 63 123  118 62 124  67 63 122  125 62 119  118 45 102  85 80 30  93 83 126  42 127 71  128 40 72  107 27 129  108 50 130  37 131 39  93 74 126  29 74 126  28 35 132  133 1 134  53 38 84  113 19 94  23 114 95  98 44 100  10 80 30  98 83 126  101 135 136  101 45 136  6 9 137  55 9 137  125 62 122  0 1 134  69 35 132  47 45 124  138 13 15  53 135 84  34 37 38  43 44 100  24 106 117  115 106 117  16 45 136  118 45 124  29 97 74  29 99 126  29 99 30  0 3 139  133 1 110  140 141 142  47 62 124  10 80 41  98 83 44  138 143 15  141 142 120  113 94 110  114 95 112  93 50 130  85 27 129  16 17 46  144 4 120  7 1 145  8 3 146  10 99 30  98 99 126  54 26 51  58 63 123  69 26 51  147 148 149  150 151 152  147 65 149  151 66 152  10 99 12  58 49 86  144 141 120  64 49 86  28 17 132  91 14 137  11 72 77  43 71 153  109 1 145  111 3 146  55 14 137  97 74 121  127 22 106  20 128 104  75 72 77  115 71 153  125 67 122  89 17 154  54 33 51  155 156 139  90 27 31  68 64 86  43 100 153  36 100 153  156 134 139  47 88 46  58 88 123  47 88 123  85 27 31  61 65 96  56 66 157  158 52 57  148 109 145  111 150 146  36 12 100  128 72 104  127 71 106  7 65 149  8 66 152  79 107 129  108 81 130  69 70 154  36 116 77  36 116 153  52 14 57  89 70 154  75 116 77  115 116 153  60 147 96  151 158 157  147 65 96  151 66 157  75 116 76  79 80 129  81 83 130  6 142 120  135 18 136  103 97 121  75 72 104  115 71 106  158 57 157  21 94 105  24 95 159  17 132 154  93 83 130  85 80 129  90 97 31  143 140 160  24 117 159  92 117 159  56 57 157  133 94 105  155 95 159  155 112 139  92 156 159  92 156 105  92 76 117  135 18 84  3 112 139  73 74 121  155 156 159  133 156 105  133 94 110  155 95 112  69 132 154  148 145 149  150 146 152  91 142 137  133 156 134  6 142 137  0 134 139  28 18 84  143 15 160  7 145 149  8 146 152  140 142 160  16 18 136  91 15 160  91 142 160  </DataArray>
<DataArray  type="UInt32"  Name="offsets"  format="ascii">3 6 9 12 15 18 21 24 27 30 33 36 39 42 45 48 51 54 57 60 63 66 69 72 75 78 81 84 87 90 93 96 99 102 105 108 111 114 117 120 123 126 129 132 135 138 141 144 147 150 153 156 159 162 165 168 171 174 177 180 183 186 189 192 195 198 201 204 207 210 213 216 219 222 225 228 231 234 237 240 243 246 249 252 255 258 261 264 267 270 273 276 279 282 285 288 291 294 297 300 303 306 309 312 315 318 321 324 327 330 333 336 339 342 345 348 351 354 357 360 363 366 369 372 375 378 381 384 387 390 393 396 399 402 405 408 411 414 417 420 423 426 429 432 435 438 441 444 447 450 453 456 459 462 465 468 471 474 477 480 483 486 489 492 495 498 501 504 507 510 513 516 519 522 525 528 531 534 537 540 543 546 549 552 555 558 561 564 567 570 573 576 579 582 585 588 591 594 597 600 603 606 609 612 615 618 621 624 627 630 633 636 639 642 645 648 651 654 657 660 663 666 669 672 675 678 681 684 687 690 693 696 699 702 705 708 711 714 717 720 723 726 729 732 735 738 741 744 747 750 753 756 759 762 765 768 771 774 777 780 783 786 789 792 795 798 801 804 807 </DataArray>
<DataArray  type="UInt8"  Name="types"  format="ascii">5 5 5 5 5 5 5 5 5 5 5 5 5 5 5 5 5 5 5 5 5 5 5 5 5 5 5 5 5 5 5 5 5 5 5 5 5 5 5 5 5 5 5 5 5 5 5 5 5 5 5 5 5 5 5 5 5 5 5 5 5 5 5 5 5 5 5 5 5 5 5 5 5 5 5 5 5 5 5 5 5 5 5 5 5 5 5 5 5 5 5 5 5 5 5 5 5 5 5 5 5 5 5 5 5 5 5 5 5 5 5 5 5 5 5 5 5 5 5 5 5 5 5 5 5 5 5 5 5 5 5 5 5 5 5 5 5 5 5 5 5 5 5 5 5 5 5 5 5 5 5 5 5 5 5 5 5 5 5 5 5 5 5 5 5 5 5 5 5 5 5 5 5 5 5 5 5 5 5 5 5 5 5 5 5 5 5 5 5 5 5 5 5 5 5 5 5 5 5 5 5 5 5 5 5 5 5 5 5 5 5 5 5 5 5 5 5 5 5 5 5 5 5 5 5 5 5 5 5 5 5 5 5 5 5 5 5 5 5 5 5 5 5 5 5 5 5 5 5 5 5 5 5 5 5 5 5 5 5 5 5 5 5 5 5 5 5 5 5 </DataArray>
</Cells>
<PointData  Vectors="d"> 
<DataArray  type="Float64"  Name="d"  NumberOfComponents="3" format="ascii">8.6625783736009583e-15 -6.6076437032522688e-15 0.0000000000000000e+00  6.5142339451626002e-15 -4.9726584398322023e-15 0.0000000000000000e+00  4.6417086208136316e-15 -3.5406173781210225e-15 0.0000000000000000e+00  6.1470730533370680e-15 -4.6847782814327251e-15 0.0000000000000000e+00  0.0000000000000000e+00 0.0000000000000000e+00 0.0000000000000000e+00  0.0000000000000000e+00 0.0000000000000000e+00 0.0000000000000000e+00  1.1123570456901521e-16 -8.4850159432597677e-17 0.0000000000000000e+00  3.0973526607500462e-15 -2.3633086721688669e-15 0.0000000000000000e+00  3.1031330021721899e-15 -2.3663097547600806e-15 0.0000000000000000e+00  2.5557941304470871e-16 -1.9495868893173174e-16 0.0000000000000000e+00  3.7772194137813915e-13 -2.9845990313412198e-13 0.0000000000000000e+00  1.5106942873931767e-13 -1.1765475774324362e-13 0.0000000000000000e+00  3.2943357027598564e-13 -2.5360524025731362e-13 0.0000000000000000e+00  0.0000000000000000e+00 0.0000000000000000e+00 0.0000000000000000e+00  1.6435897952911160e-16 -1.2536707745975134e-16 0.0000000000000000e+00  4.4214236587491757e-17 -3.3725372910987604e-17 0.0000000000000000e+00  1.2641222025923280e-11 -9.7014978594832200e-12 0.0000000000000000e+00  8.0241759791502135e-12 -7.3483734129408308e-12 0.0000000000000000e+00  1.2977410292412504e-11 -1.6544380983872906e-11 0.0000000000000000e+00  0.0000000000000000e+00 0.0000000000000000e+00 0.0000000000000000e+00  0.0000000000000000e+00 0.0000000000000000e+00 0.0000000000000000e+00  3.1817462187284565e-14 -2.4382183010249071e-14 0.0000000000000000e+00  0.0000000000000000e+00 0.0000000000000000e+00 0.0000000000000000e+00  0.0000000000000000e+00 0.0000000000000000e+00 0.0000000000000000e+00  2.4861674810668627e-14 -1.8873305933049625e-14 0.0000000000000000e+00  0.0000000000000000e+00 0.0000000000000000e+00 0.0000000000000000e+00  1.5761427914457159e-12 -1.6406760023311603e-12 0.0000000000000000e+00  7.8612260336939247e-13 -7.1524655993207185e-13 0.0000000000000000e+00  8.4173448855089691e-12 -1.2049963384178768e-11 0.0000000000000000e+00  9.9754411766438781e-13 -7.6529649515463838e-13 0.0000000000000000e+00  6.8200809733273850e-13 -5.4573769115852204e-13 0.0000000000000000e+00  1.1560995009134942e-12 -9.6656632517784372e-13 0.0000000000000000e+00  2.2204064284654766e-15 -1.6936873749931263e-15 0.0000000000000000e+00  0.0000000000000000e+00 0.0000000000000000e+00 0.0000000000000000e+00  0.0000000000000000e+00 0.0000000000000000e+00 0.0000000000000000e+00  3.6691903999140385e-12 -5.3367774501511280e-12 0.0000000000000000e+00  2.0884502180263068e-13 -1.5927877230321970e-13 0.0000000000000000e+00  0.0000000000000000e+00 0.0000000000000000e+00 0.0000000000000000e+00  5.5749781953145763e-12 -1.0853658621258289e-11 0.0000000000000000e+00  7.2796414541463796e-12 -1.9368362406759046e-11 0.0000000000000000e+00  0.0000000000000000e+00 0.0000000000000000e+00 0.0000000000000000e+00  1.7033571081790609e-13 -1.3523272783933560e-13 0.0000000000000000e+00  0.0000000000000000e+00 0.0000000000000000e+00 0.0000000000000000e+00  1.3875204085894798e-13 -1.0349271113472505e-13 0.0000000000000000e+00  1.7035918226282995e-13 -1.2464626783597403e-13 0.0000000000000000e+00  1.5164103759905247e-11 -1.8590174682848299e-12 0.0000000000000000e+00  9.1963592252095826e-12 -4.8271407292094809e-12 0.0000000000000000e+00  8.4684786710352174e-12 -8.0681824675598615e-13 0.0000000000000000e+00  0.0000000000000000e+00 0.0000000000000000e+00 0.0000000000000000e+00  1.5408025474556939e-12 -7.4775547517183955e-13 0.0000000000000000e+00  8.0787461570336154e-13 -4.9877787702511626e-13 0.0000000000000000e+00  1.6227096052779893e-12 -1.9623090159493397e-12 0.0000000000000000e+00  0.0000000000000000e+00 0.0000000000000000e+00 0.0000000000000000e+00  1.1187754332928034e-11 -2.5127439409144249e-11 0.0000000000000000e+00  0.0000000000000000e+00 0.0000000000000000e+00 0.0000000000000000e+00  4.3951949066333695e-16 -3.3525597246343530e-16 0.0000000000000000e+00  6.7020927771092398e-16 -5.1119207301608725e-16 0.0000000000000000e+00  2.6213117388397749e-16 -1.9993691126521956e-16 0.0000000000000000e+00  3.5683494882016107e-12 -1.3276998293118813e-12 0.0000000000000000e+00  3.1982507666217623e-12 -1.9525127326395829e-12 0.0000000000000000e+00  0.0000000000000000e+00 0.0000000000000000e+00 0.0000000000000000e+00  6.2425368654817134e-16 -4.7620198089974779e-16 0.0000000000000000e+00  6.7717933995656552e-12 3.2930361985692099e-12 0.0000000000000000e+00  3.8717390653183357e-12 -9.9459567491779999e-14 0.0000000000000000e+00  0.0000000000000000e+00 0.0000000000000000e+00 0.0000000000000000e+00  1.2815691379987494e-15 -9.7773295018325483e-16 0.0000000000000000e+00  1.2689837484867680e-15 -9.6780705672276117e-16 0.0000000000000000e+00  0.0000000000000000e+00 0.0000000000000000e+00 0.0000000000000000e+00  0.0000000000000000e+00 0.0000000000000000e+00 0.0000000000000000e+00  3.5570476958565545e-12 -4.0321641477821543e-12 0.0000000000000000e+00  3.2940448591388206e-12 -3.0120767361350619e-12 0.0000000000000000e+00  6.5874879472882341e-14 -4.9466024670313677e-14 0.0000000000000000e+00  6.5897322121975924e-14 -5.1048098475386605e-14 0.0000000000000000e+00  1.7946940967267791e-12 -1.1277584234036506e-12 0.0000000000000000e+00  1.2901788752342151e-12 -9.1257428646784426e-13 0.0000000000000000e+00  7.7880835534078851e-14 -5.9835171773681321e-14 0.0000000000000000e+00  6.7874068544029055e-14 -5.1859110284146980e-14 0.0000000000000000e+00  1.3185811329059120e-13 -1.0148163943438685e-13 0.0000000000000000e+00  0.0000000000000000e+00 0.0000000000000000e+00 0.0000000000000000e+00  0.0000000000000000e+00 0.0000000000000000e+00 0.0000000000000000e+00  3.2484716979019381e-13 -2.6654755476746532e-13 0.0000000000000000e+00  0.0000000000000000e+00 0.0000000000000000e+00 0.0000000000000000e+00  0.0000000000000000e+00 0.0000000000000000e+00 0.0000000000000000e+00  3.1673796599085976e-13 -2.2398054672419724e-13 0.0000000000000000e+00  1.1610445846581065e-11 -2.0419001129337512e-11 0.0000000000000000e+00  6.8378978825987660e-13 -5.7642595132395758e-13 0.0000000000000000e+00  1.5825376130667097e-12 -4.9434026064642723e-13 0.0000000000000000e+00  1.0607415260293983e-15 -8.0911554942636356e-16 0.0000000000000000e+00  6.2082561691963290e-12 -3.0415750495427137e-12 0.0000000000000000e+00  4.8756629329008882e-12 -3.7268367121479317e-12 0.0000000000000000e+00  1.8424067530678592e-12 -1.6473138619440898e-12 0.0000000000000000e+00  1.1076691419536248e-16 -8.4490358785806596e-17 0.0000000000000000e+00  4.2058874854315301e-14 -3.2080815475796917e-14 0.0000000000000000e+00  7.2384018243056150e-13 -4.9559009040061309e-13 0.0000000000000000e+00  1.2692407541414325e-14 -9.7089055505229140e-15 0.0000000000000000e+00  1.2785897252682091e-14 -9.7252036821505047e-15 0.0000000000000000e+00  4.7150178853273148e-16 -3.5970347408215158e-16 0.0000000000000000e+00  1.6734848250845691e-12 -1.3160596711655483e-12 0.0000000000000000e+00  3.9349788505945973e-13 -2.8925175564153551e-13 0.0000000000000000e+00  5.3157694902486119e-13 -4.0507150994684507e-13 0.0000000000000000e+00  2.7183613449701931e-13 -2.0419910733128959e-13 0.0000000000000000e+00  2.3811119759198848e-11 -1.6203642658474369e-11 0.0000000000000000e+00  2.1646674053511852e-11 1.0649147422018839e-11 0.0000000000000000e+00  2.7156998537147051e-12 -2.1190059960798865e-12 0.0000000000000000e+00  3.5429674373716450e-14 -2.7291345129704009e-14 0.0000000000000000e+00  2.6431480619790847e-14 -2.0198268543179486e-14 0.0000000000000000e+00  3.4720993418526089e-14 -2.6237989219978325e-14 0.0000000000000000e+00  0.0000000000000000e+00 0.0000000000000000e+00 0.0000000000000000e+00  0.0000000000000000e+00 0.0000000000000000e+00 0.0000000000000000e+00  0.0000000000000000e+00 0.0000000000000000e+00 0.0000000000000000e+00  7.0720503805376436e-15 -5.4034496524548909e-15 0.0000000000000000e+00  0.0000000000000000e+00 0.0000000000000000e+00 0.0000000000000000e+00  7.0744731242673929e-15 -5.3872933943740399e-15 0.0000000000000000e+00  0.0000000000000000e+00 0.0000000000000000e+00 0.0000000000000000e+00  0.0000000000000000e+00 0.0000000000000000e+00 0.0000000000000000e+00  8.1300439688883799e-14 -6.1546805601042314e-14 0.0000000000000000e+00  1.1006772913360282e-13 -8.3929677502961081e-14 0.0000000000000000e+00  5.4990003146230162e-14 -4.1808038449858401e-14 0.0000000000000000e+00  1.4634161673628995e-11 1.3767571405840567e-11 0.0000000000000000e+00  6.8508280487489676e-12 7.8885064788943803e-12 0.0000000000000000e+00  3.8174666089798778e-17 -2.9119387403296683e-17 0.0000000000000000e+00  2.0374848663476257e-12 -1.4486390024946844e-12 0.0000000000000000e+00  3.2041417086664552e-12 8.9635861776168026e-13 0.0000000000000000e+00  5.5936927228924635e-12 -1.3519110636325858e-12 0.0000000000000000e+00  1.1348104324534425e-11 3.6750702956448292e-12 0.0000000000000000e+00  0.0000000000000000e+00 0.0000000000000000e+00 0.0000000000000000e+00  6.7682300605312895e-13 -4.9535906455465453e-13 0.0000000000000000e+00  0.0000000000000000e+00 0.0000000000000000e+00 0.0000000000000000e+00  0.0000000000000000e+00 0.0000000000000000e+00 0.0000000000000000e+00  3.3488714143885870e-13 -2.8717650891072231e-13 0.0000000000000000e+00  3.4150992544943633e-13 -2.2830479218112493e-13 0.0000000000000000e+00  0.0000000000000000e+00 0.0000000000000000e+00 0.0000000000000000e+00  5.8097954349731183e-12 -6.8726100235792023e-12 0.0000000000000000e+00  1.5648230659034650e-14 -1.1954185837800854e-14 0.0000000000000000e+00  1.3074881857129690e-14 -9.9766962068402639e-15 0.0000000000000000e+00  1.8582726751524837e-11 -3.4262788139813189e-11 0.0000000000000000e+00  1.7017231643765678e-11 -1.5986406676489948e-11 0.0000000000000000e+00  2.0120960897903054e-16 -1.5347963248754615e-16 0.0000000000000000e+00  0.0000000000000000e+00 0.0000000000000000e+00 0.0000000000000000e+00  1.2056245403262125e-14 -9.1901583590788989e-15 0.0000000000000000e+00  0.0000000000000000e+00 0.0000000000000000e+00 0.0000000000000000e+00  0.0000000000000000e+00 0.0000000000000000e+00 0.0000000000000000e+00  7.0569732966605856e-17 -5.3829570104837619e-17 0.0000000000000000e+00  0.0000000000000000e+00 0.0000000000000000e+00 0.0000000000000000e+00  0.0000000000000000e+00 0.0000000000000000e+00 0.0000000000000000e+00  2.2511054523229848e-15 -1.7181529681066415e-15 0.0000000000000000e+00  2.5032179659184144e-15 -1.9081689882051113e-15 0.0000000000000000e+00  0.0000000000000000e+00 0.0000000000000000e+00 0.0000000000000000e+00  0.0000000000000000e+00 0.0000000000000000e+00 0.0000000000000000e+00  1.4600512448467664e-15 -1.1140954785931217e-15 0.0000000000000000e+00  0.0000000000000000e+00 0.0000000000000000e+00 0.0000000000000000e+00  0.0000000000000000e+00 0.0000000000000000e+00 0.0000000000000000e+00  1.4592546868027345e-15 -1.1127043870869460e-15 0.0000000000000000e+00  1.4299940600192309e-13 -1.0801192603556659e-13 0.0000000000000000e+00  5.0100756865350756e-12 -4.9108582038705252e-12 0.0000000000000000e+00  1.6282090703884698e-14 -1.2400940928404152e-14 0.0000000000000000e+00  2.2147670750913747e-14 -1.6893028004276417e-14 0.0000000000000000e+00  4.5313965101993924e-16 -3.4560420236186801e-16 0.0000000000000000e+00  0.0000000000000000e+00 0.0000000000000000e+00 0.0000000000000000e+00  2.8352041758455961e-14 -2.1583111248113166e-14 0.0000000000000000e+00  4.4202633232670796e-17 -3.3716801696278014e-17 0.0000000000000000e+00  </DataArray> 
</PointData> 
</Piece>
</UnstructuredGrid>
</VTKFile>