<?xml version="1.0"?>
<VTKFile type="UnstructuredGrid"  version="0.1"  >
<UnstructuredGrid>
<Piece  NumberOfPoints="157" NumberOfCells="274">
<Points>
<DataArray  type="Float64"  NumberOfComponents="3"  format="ascii">0.3536633465331916 0.1900220986022082 0  0.3530023732554217 0.2000248398751073 0  0.3591302139205285 0.1964244488362874 0  0.3013255044246668 0.1900021569953113 0  0.300708347231098 0.1999998416977408 0  0.3067364320480684 0.1964131288821648 0  0.3474835952768494 0.1961936426908808 0  0.2951468715936273 0.1961843415694771 0  0.353649759804655 0.2099915934655441 0  0.3474789875364842 0.2038183136380937 0  0.3013200004178801 0.2100048409980275 0  0.2951449958760635 0.2038215419843972 0  0.3591645089436211 0.2036309440533435 0  0.3068256558554048 0.2036311428316923 0  0.3798324238692715 0.2000081983811285 0  0.387307641949069 0.2029089322170141 0  0.3873160125396768 0.1959460646806017 0  0.365190549114536 0.1998735446636338 0  0.3723504429320394 0.2029094912137716 0  0.3723871248402298 0.195929571893732 0  0.3274880996690183 0.2000047266798239 0  0.334963258493794 0.2029108055244809 0  0.334883028789376 0.1959317336451579 0  0.3128443858643194 0.1998697754626878 0  0.3200103920654276 0.2029112728413907 0  0.3200428940724591 0.1959187314814205 0  0.3418382731132522 0.1998748272676166 0  0.3162703080252614 0.210001278652936 0  0.32374572304081 0.2099994886442523 0  0.3686018574005603 0.2099870456802316 0  0.3760785256910529 0.2099846971343569 0  0.3312213043519964 0.2099976057620884 0  0.338697051620192 0.2099956449325538 0  0.3835554115729322 0.2099822868508571 0  0.3910325453119006 0.2099797941108219 0  0.3461849733736352 0.190019032148815 0  0.3461729121771115 0.2099935773998431 0  0.3088013378064747 0.1900049887605097 0  0.3611405236282444 0.1900255174529203 0  0.3798392911942109 0.1943262668632404 0  0.3648813378148466 0.1943215340501962 0  0.3274919489985551 0.1943116888669291 0  0.3125386796936442 0.194308154012146 0  0.3611253142806438 0.2099892995170593 0  0.3087949772237257 0.2100029182419122 0  0.3419364770603853 0.1944112256405461 0  0.3651504043621358 0.2054161312579737 0  0.3798283025294435 0.2056907529985609 0  0.3274872240003685 0.2056980751613061 0  0.3128116976053619 0.2054219961099897 0  0.3419417047823821 0.2054097071724623 0  0.376097376511156 0.1900326535871195 0  0.3686186864938924 0.1900290066629888 0  0.3387075824591272 0.1900160105171952 0  0.3312305942289274 0.1900131024373264 0  0.3237539087153761 0.1900103009348058 0  0.3162775041917279 0.1900076110825832 0  0.3835765911945554 0.1900364653752925 0  0.3606407651934299 0.2792905696036062 0  0.3755746808160563 0.2925745989082846 0  0.3728862802278535 0.2686942117782618 0  0.3872497024577588 0.2767896097485958 0  0.3656559148250536 0.146713554945467 0  0.3739604650833572 0.1566167975196134 0  0.3840606105025489 0.1491100426010598 0  0.3657903150499742 0.2538936938906297 0  0.3827605345918324 0.2574822285601681 0  0.3744063633273326 0.2455748406875831 0  0.3831188398654189 0.2465343293951208 0  0.3751654959383623 0.1340103508023205 0  0.3418943886574389 0.2384718251742413 0  0.3538893167463657 0.2447150565336585 0  0.3412075674844023 0.2501378709620688 0  0.3804797001707848 0.223363472841715 0  0.3911044706284987 0.2226160526190135 0  0.3869680715794441 0.2161404165984781 0  0.3423419380097394 0.2186245729030564 0  0.2981831972930184 0.2362766708938033 0  0.310447993106977 0.2435713509747403 0  0.3096634915153313 0.233227575400552 0  0.3423979598742956 0.1814551582117683 0  0.3986834114784334 0.2667534046680698 0  0.3983611848380955 0.2897575050625305 0  0.3799022635549657 0.2157182097977031 0  0.3872765465718429 0.2377739279148486 0  0.4021958095922312 0.2412786969387337 0  0.395317758971454 0.2310422974696331 0  0.3343371656455454 0.2238408455103217 0  0.3304685060558976 0.23348866040461 0  0.3420977127868474 0.2288948770250639 0  0.3528402512520127 0.2550449910722197 0  0.3422988505706824 0.2620359319372649 0  0.3425847404530213 0.2775518434810663 0  0.3571778046253716 0.2658431169736716 0  0.3299231543181712 0.2450513353185551 0  0.3025093183504172 0.2302388700534452 0  0.3343444697986777 0.176236662239383 0  0.3305130554789034 0.1665559042335892 0  0.3421556761203963 0.1711926761408639 0  0.3648271628620234 0.2309515635224337 0  0.3533596786673705 0.2336523759338096 0  0.3648487521608522 0.2414528068826096 0  0.341927751134589 0.161544209073759 0  0.3766798783747268 0.2345881546990142 0  0.3863688737252417 0.2292901101906714 0  0.3934655478745276 0.2499195460725218 0  0.312615344361689 0.2174293141336284 0  0.327353195843462 0.2174209575226164 0  0.3126224998713601 0.1825788330608078 0  0.3273628343043038 0.18259368614161 0  0.3349574623734358 0.2165161374048661 0  0.3573844138865834 0.2173175160690964 0  0.349896893516072 0.21622111744487 0  0.3723300175044343 0.217366533974399 0  0.3648699818381269 0.1690631229358335 0  0.3535119526846239 0.1664303756773994 0  0.3647204742124622 0.1596077764653806 0  0.3575095124473806 0.1825945157000806 0  0.3722438678362049 0.1826010887181032 0  0.334861656616072 0.183873586766588 0  0.3199422611172989 0.2308152197131859 0  0.3199942852351962 0.2215487210102232 0  0.3134008708511759 0.2254652415931051 0  0.3759793634766848 0.1666002041136477 0  0.3499217684361081 0.1835026844991936 0  0.3199061022974753 0.2406011618801618 0  0.3539141798660244 0.1553617553781853 0  0.3265324223491652 0.2254648039007781 0  0.3872761792426516 0.1813870333320728 0  0.3798334991084424 0.1835160913233585 0  0.3503429482939325 0.1761266123158145 0  0.3499058947114261 0.2244552689397755 0  0.3872977989963844 0.1622441143296283 0  0.3794053546342159 0.176139055633003 0  0.3193722538429536 0.2539501246572503 0  0.358007116410609 0.2256274503980588 0  0.3052686742046815 0.2238659146578641 0  0.3050754038043473 0.2160050626988657 0  0.3648575164605781 0.2216538284263807 0  0.3717535981173507 0.2254833260622202 0  0.2974249743976281 0.2175652206275323 0  0.3265601897191831 0.2702011359876124 0  0.3648745685557657 0.1783632346698819 0  0.3581333433250807 0.1744752611152866 0  0.3716123473476295 0.1744809353110841 0  0.3313109312082773 0.2576422667848002 0  0.3871672191530324 0.171217072430703 0  0.3050831938869805 0.1840051984562585 0  0.3265499953500286 0.1745537906545729 0  0.2970451688115819 0.2264918950605339 0  0.2898136823858601 0.2309799871212632 0  0.3199995542695124 0.2151096224846404 0  0.3200077740035535 0.1849000206865286 0  0.3648603323806824 0.2150840070802127 0  0.3648774450412936 0.1849114422829073 0  0.3200042350040279 0.1784589994049883 0  0.3947672512992125 0.2157984104910216 0  </DataArray>
</Points>
<Cells>
<DataArray  type="UInt32"  Name="connectivity"  format="ascii">0 1 2  3 4 5  0 1 6  3 4 7  8 1 9  10 4 11  8 1 12  10 4 13  14 15 16  17 18 19  20 21 22  23 24 25  20 24 25  26 21 22  14 18 19  27 28 24  29 30 18  31 32 21  33 34 15  0 35 6  36 8 9  37 3 5  38 0 2  14 16 39  17 19 40  20 22 41  23 25 42  20 25 41  14 19 39  8 43 12  10 44 13  26 22 45  29 18 46  30 18 47  17 18 46  28 24 48  33 15 47  27 24 49  31 21 48  14 15 47  14 18 47  23 24 49  20 24 48  20 21 48  32 21 50  26 21 50  51 52 19  53 54 22  55 56 25  17 2 12  23 5 13  1 2 12  4 5 13  51 19 39  57 16 39  52 19 40  54 22 41  56 25 42  55 25 41  4 11 7  1 9 6  26 9 6  53 22 45  23 13 49  17 12 46  35 53 45  32 36 50  57 51 39  52 38 40  43 29 46  30 33 47  54 55 41  56 37 42  28 31 48  44 27 49  43 12 46  44 13 49  17 2 40  38 2 40  23 5 42  37 5 42  35 6 45  36 9 50  26 9 50  26 6 45  58 59 60  61 59 60  62 63 64  65 66 67  66 67 68  62 64 69  70 71 72  73 74 75  32 36 76  77 78 79  35 53 80  61 81 82  73 83 75  84 85 86  65 66 60  61 59 82  87 88 89  71 72 90  91 92 93  70 94 88  77 79 95  70 88 89  96 97 98  99 100 101  102 97 98  99 103 101  70 71 100  73 74 104  84 85 105  44 27 106  28 31 107  56 37 108  54 55 109  32 76 110  8 43 111  61 66 60  36 76 112  29 30 113  114 115 116  38 0 117  87 107 110  51 52 118  53 80 119  120 121 122  114 123 116  70 94 72  35 80 124  120 79 125  61 66 81  102 126 115  120 121 127  57 128 129  73 113 83  130 117 124  131 111 112  120 88 125  66 81 105  132 63 123  96 109 119  133 118 129  71 100 101  134 78 125  87 76 89  99 135 100  58 92 93  136 106 137  99 138 135  131 76 89  99 138 139  84 103 68  87 107 127  136 140 137  91 141 92  130 80 98  134 94 125  96 80 98  10 140 137  114 142 143  67 103 101  136 106 122  99 139 103  114 142 144  134 94 145  78 79 125  131 111 135  10 44 137  131 100 89  73 113 139  31 32 110  130 115 98  132 63 64  133 128 146  36 8 112  37 3 147  53 54 119  96 109 148  30 33 83  0 35 124  130 117 143  114 143 115  134 141 145  136 140 149  57 51 129  44 106 137  126 115 116  67 103 68  84 103 104  114 144 123  37 108 147  77 150 149  133 118 144  31 107 110  87 76 110  73 103 104  63 123 116  133 123 146  94 88 125  54 109 119  8 111 112  91 90 93  30 113 83  0 117 124  130 80 124  51 118 129  131 76 112  65 71 101  27 106 151  65 67 101  28 107 151  102 115 98  56 108 152  96 80 119  133 128 129  70 100 89  55 109 152  91 141 145  43 111 153  29 113 153  38 117 154  52 118 154  94 72 145  33 34 75  132 123 146  62 126 116  136 79 122  62 63 116  65 71 90  121 106 122  131 135 100  120 79 122  33 83 75  121 107 127  73 139 103  120 88 127  155 109 148  87 88 127  138 111 135  130 143 115  138 113 139  34 75 156  65 60 93  96 97 148  77 149 95  121 106 151  133 144 123  121 107 151  136 79 95  142 117 143  91 72 90  142 118 144  155 108 152  155 109 152  27 28 151  55 56 152  138 111 153  43 29 153  138 113 153  52 38 154  142 117 154  142 118 154  74 86 104  58 60 93  74 75 156  84 86 104  84 105 68  91 72 145  65 90 93  136 149 95  66 105 68  </DataArray>
<DataArray  type="UInt32"  Name="offsets"  format="ascii">3 6 9 12 15 18 21 24 27 30 33 36 39 42 45 48 51 54 57 60 63 66 69 72 75 78 81 84 87 90 93 96 99 102 105 108 111 114 117 120 123 126 129 132 135 138 141 144 147 150 153 156 159 162 165 168 171 174 177 180 183 186 189 192 195 198 201 204 207 210 213 216 219 222 225 228 231 234 237 240 243 246 249 252 255 258 261 264 267 270 273 276 279 282 285 288 291 294 297 300 303 306 309 312 315 318 321 324 327 330 333 336 339 342 345 348 351 354 357 360 363 366 369 372 375 378 381 384 387 390 393 396 399 402 405 408 411 414 417 420 423 426 429 432 435 438 441 444 447 450 453 456 459 462 465 468 471 474 477 480 483 486 489 492 495 498 501 504 507 510 513 516 519 522 525 528 531 534 537 540 543 546 549 552 555 558 561 564 567 570 573 576 579 582 585 588 591 594 597 600 603 606 609 612 615 618 621 624 627 630 633 636 639 642 645 648 651 654 657 660 663 666 669 672 675 678 681 684 687 690 693 696 699 702 705 708 711 714 717 720 723 726 729 732 735 738 741 744 747 750 753 756 759 762 765 768 771 774 777 780 783 786 789 792 795 798 801 804 807 810 813 816 819 822 </DataArray>
<DataArray  type="UInt8"  Name="types"  format="ascii">5 5 5 5 5 5 5 5 5 5 5 5 5 5 5 5 5 5 5 5 5 5 5 5 5 5 5 5 5 5 5 5 5 5 5 5 5 5 5 5 5 5 5 5 5 5 5 5 5 5 5 5 5 5 5 5 5 5 5 5 5 5 5 5 5 5 5 5 5 5 5 5 5 5 5 5 5 5 5 5 5 5 5 5 5 5 5 5 5 5 5 5 5 5 5 5 5 5 5 5 5 5 5 5 5 5 5 5 5 5 5 5 5 5 5 5 5 5 5 5 5 5 5 5 5 5 5 5 5 5 5 5 5 5 5 5 5 5 5 5 5 5 5 5 5 5 5 5 5 5 5 5 5 5 5 5 5 5 5 5 5 5 5 5 5 5 5 5 5 5 5 5 5 5 5 5 5 5 5 5 5 5 5 5 5 5 5 5 5 5 5 5 5 5 5 5 5 5 5 5 5 5 5 5 5 5 5 5 5 5 5 5 5 5 5 5 5 5 5 5 5 5 5 5 5 5 5 5 5 5 5 5 5 5 5 5 5 5 5 5 5 5 5 5 5 5 5 5 5 5 5 5 5 5 5 5 5 5 5 5 5 5 5 5 5 5 5 5 5 5 5 5 5 5 </DataArray>
</Cells>
<PointData  Vectors="d"> 
<DataArray  type="Float64"  Name="d"  NumberOfComponents="3" format="ascii">3.3280751316203053e-08 -5.3012347329203564e-08 0.0000000000000000e+00  3.1244074211784212e-08 1.8401935731014025e-09 0.0000000000000000e+00  3.2977222357922840e-08 -1.7455578039399554e-08 0.0000000000000000e+00  1.5451542403402189e-08 -5.0172320810897705e-08 0.0000000000000000e+00  2.2786637915847811e-08 1.1875111083814002e-09 0.0000000000000000e+00  2.2061275270701817e-08 -1.7065583055924809e-08 0.0000000000000000e+00  3.0177861963093328e-08 -1.8852792779280258e-08 0.0000000000000000e+00  2.1754969638724959e-08 -1.7329261560630051e-08 0.0000000000000000e+00  3.1170620715088679e-08 5.6598310590581918e-08 0.0000000000000000e+00  2.9452012651970417e-08 2.2377391907424886e-08 0.0000000000000000e+00  1.4534108946540587e-08 5.2664368948520801e-08 0.0000000000000000e+00  2.1441722301933022e-08 1.9500209433998781e-08 0.0000000000000000e+00  3.2212420550745553e-08 2.1239268582273105e-08 0.0000000000000000e+00  2.1712254407414888e-08 2.0013385306502951e-08 0.0000000000000000e+00  3.8881187204434412e-08 1.8352358526608358e-09 0.0000000000000000e+00  4.1197368891372620e-08 1.6704664892269372e-08 0.0000000000000000e+00  4.2459099085792372e-08 -1.9159072888872672e-08 0.0000000000000000e+00  3.4257542500684816e-08 1.1156506528735708e-09 0.0000000000000000e+00  3.6282181603589016e-08 1.7163169855704931e-08 0.0000000000000000e+00  3.7290787218464542e-08 -1.9607869825621520e-08 0.0000000000000000e+00  2.5383525149996262e-08 1.8350163616166571e-09 0.0000000000000000e+00  2.6582920253310945e-08 1.7343838551310287e-08 0.0000000000000000e+00  2.6941314684745088e-08 -1.9864880965807703e-08 0.0000000000000000e+00  2.3160238471123894e-08 8.5926385701575043e-10 0.0000000000000000e+00  2.3611940984432515e-08 1.6963050095900085e-08 0.0000000000000000e+00  2.3715522179909843e-08 -1.9670006905577438e-08 0.0000000000000000e+00  2.8544180983248791e-08 1.1062283338890678e-09 0.0000000000000000e+00  1.8843399313807043e-08 5.4058322276728685e-08 0.0000000000000000e+00  2.1115633632086334e-08 5.4795811431168919e-08 0.0000000000000000e+00  3.6227678579283684e-08 5.5026549494422964e-08 0.0000000000000000e+00  3.8902585674694093e-08 5.4463042334102428e-08 0.0000000000000000e+00  2.3484343223957580e-08 5.5290714618552378e-08 0.0000000000000000e+00  2.5909135037304073e-08 5.5602955742206592e-08 0.0000000000000000e+00  4.1639639908403801e-08 5.3807807177783496e-08 0.0000000000000000e+00  4.4384331693655237e-08 5.3065464089735446e-08 0.0000000000000000e+00  3.0263180486922133e-08 -5.1955260956718620e-08 0.0000000000000000e+00  2.8394460915605502e-08 5.5584691870845070e-08 0.0000000000000000e+00  1.7674753353425399e-08 -4.9922596785276424e-08 0.0000000000000000e+00  3.5817652390523765e-08 -5.1674153675524574e-08 0.0000000000000000e+00  4.0270414868305858e-08 -2.7734949666107477e-08 0.0000000000000000e+00  3.5158117499363937e-08 -2.8374617920772593e-08 0.0000000000000000e+00  2.4856161109571986e-08 -2.8306719359990630e-08 0.0000000000000000e+00  2.1754731775973585e-08 -2.7906028293881887e-08 0.0000000000000000e+00  3.3542653329654718e-08 5.5367867393382096e-08 0.0000000000000000e+00  1.6637842891525486e-08 5.2862500014232682e-08 0.0000000000000000e+00  2.8644542865511208e-08 -2.8178429370568560e-08 0.0000000000000000e+00  3.3925026378239541e-08 3.0616940051994015e-08 0.0000000000000000e+00  3.8631217009565394e-08 3.1462081598317257e-08 0.0000000000000000e+00  2.4059514042273726e-08 3.2010055595096749e-08 0.0000000000000000e+00  2.1388644787245434e-08 2.9648534994220797e-08 0.0000000000000000e+00  2.7679800096388766e-08 3.0813847833553908e-08 0.0000000000000000e+00  4.1570732302353515e-08 -5.0508310787319293e-08 0.0000000000000000e+00  3.8646944774866816e-08 -5.1066680681984627e-08 0.0000000000000000e+00  2.7536767005939033e-08 -5.1690539728338291e-08 0.0000000000000000e+00  2.4933777515021567e-08 -5.1409274712989694e-08 0.0000000000000000e+00  2.2414703830034932e-08 -5.1029409511676974e-08 0.0000000000000000e+00  2.0001494446941961e-08 -5.0505362138180651e-08 0.0000000000000000e+00  4.4601735937566300e-08 -4.9940881811811162e-08 0.0000000000000000e+00  2.2802526319796538e-08 2.8753324645628547e-08 0.0000000000000000e+00  2.3073787235673531e-08 2.5370036524659774e-08 0.0000000000000000e+00  2.7172680593876443e-08 3.2337922310839131e-08 0.0000000000000000e+00  2.8497712500376034e-08 2.9882371033266959e-08 0.0000000000000000e+00  3.0197744991064979e-08 -3.4768112217417820e-08 0.0000000000000000e+00  3.4502666995787127e-08 -3.8181059267751620e-08 0.0000000000000000e+00  3.5853486847624394e-08 -3.5515158947194813e-08 0.0000000000000000e+00  2.8200366985183768e-08 3.7185374178234822e-08 0.0000000000000000e+00  3.1651487402862498e-08 3.5947301316154198e-08 0.0000000000000000e+00  3.1889577240413914e-08 4.0195920772012568e-08 0.0000000000000000e+00  3.4026330375496650e-08 3.9671491813969949e-08 0.0000000000000000e+00  3.0094342498416733e-08 -3.0810126545921162e-08 0.0000000000000000e+00  2.4226765057731248e-08 4.2115946508156050e-08 0.0000000000000000e+00  2.6612157310817374e-08 4.0259764893877749e-08 0.0000000000000000e+00  2.2743238407487931e-08 3.7362384885556976e-08 0.0000000000000000e+00  3.7921722921350425e-08 4.8496096724924754e-08 0.0000000000000000e+00  4.1572653720276680e-08 4.8030503549219960e-08 0.0000000000000000e+00  4.1580413918402655e-08 5.0932425139353591e-08 0.0000000000000000e+00  2.6362239975947949e-08 5.1255488581849479e-08 0.0000000000000000e+00  1.3464191644770478e-08 3.5140852115963750e-08 0.0000000000000000e+00  1.6018915321830657e-08 3.5381773390775311e-08 0.0000000000000000e+00  1.6301937542516234e-08 3.9800955326539244e-08 0.0000000000000000e+00  2.8096387130876407e-08 -4.7832850322848766e-08 0.0000000000000000e+00  3.3218768134440686e-08 3.2610851366458649e-08 0.0000000000000000e+00  2.7581060416077943e-08 2.6093795541496873e-08 0.0000000000000000e+00  3.9180472719990601e-08 5.1627027148275018e-08 0.0000000000000000e+00  3.7044746929848474e-08 4.2635897304526194e-08 0.0000000000000000e+00  4.0480116599579061e-08 4.0533607430664606e-08 0.0000000000000000e+00  4.0980166614567124e-08 4.4580618345582261e-08 0.0000000000000000e+00  2.3495027221969912e-08 4.8203613607845076e-08 0.0000000000000000e+00  2.1644754311874964e-08 4.3230780433308070e-08 0.0000000000000000e+00  2.5292276098158934e-08 4.6357293507081899e-08 0.0000000000000000e+00  2.4895119408064998e-08 3.6335147211892377e-08 0.0000000000000000e+00  2.1564964548780159e-08 3.3148024177235478e-08 0.0000000000000000e+00  1.9628391522232381e-08 2.8190274600734779e-08 0.0000000000000000e+00  2.4267866023791150e-08 3.2823744066426839e-08 0.0000000000000000e+00  2.0526988618385928e-08 3.8172052296026093e-08 0.0000000000000000e+00  1.4638638062390324e-08 3.9379032542662386e-08 0.0000000000000000e+00  2.4991813224688294e-08 -4.4995113485016770e-08 0.0000000000000000e+00  2.3010547256600996e-08 -4.0381268012414633e-08 0.0000000000000000e+00  2.6958345575101731e-08 -4.3267783230865236e-08 0.0000000000000000e+00  3.1705043730635257e-08 4.5981049262857020e-08 0.0000000000000000e+00  2.7968282183681735e-08 4.4753782651262406e-08 0.0000000000000000e+00  3.0028071243444789e-08 4.1776826167148811e-08 0.0000000000000000e+00  2.5792315859667153e-08 -3.9262481620481699e-08 0.0000000000000000e+00  3.4592859309054260e-08 4.4261487885487953e-08 0.0000000000000000e+00  3.8594364475818837e-08 4.5828710013543540e-08 0.0000000000000000e+00  3.6002739571624712e-08 3.8135444465949581e-08 0.0000000000000000e+00  1.7601274585737386e-08 4.8909233788627401e-08 0.0000000000000000e+00  2.1861841244710991e-08 5.0865645321217098e-08 0.0000000000000000e+00  1.8683369892408057e-08 -4.5959053277566174e-08 0.0000000000000000e+00  2.3224236420374536e-08 -4.7452822275107266e-08 0.0000000000000000e+00  2.4238679644818670e-08 5.1977838660632242e-08 0.0000000000000000e+00  3.1350213279545679e-08 5.2156299221315283e-08 0.0000000000000000e+00  2.9038035038518164e-08 5.2718041920226453e-08 0.0000000000000000e+00  3.6308952341296986e-08 5.1478906422219736e-08 0.0000000000000000e+00  3.3935929838620951e-08 -4.2833267899538706e-08 0.0000000000000000e+00  2.9902656938675840e-08 -4.1737866070553904e-08 0.0000000000000000e+00  3.2265768349636862e-08 -3.9278379120998479e-08 0.0000000000000000e+00  3.3503131997696939e-08 -4.8619171834021825e-08 0.0000000000000000e+00  3.8807175377140491e-08 -4.7854343253709535e-08 0.0000000000000000e+00  2.5762706026970534e-08 -4.8590441170322681e-08 0.0000000000000000e+00  1.9035599589199483e-08 4.3023144695890102e-08 0.0000000000000000e+00  1.9522564545359508e-08 4.7788470654763240e-08 0.0000000000000000e+00  1.7559828578835490e-08 4.4557061323963655e-08 0.0000000000000000e+00  3.7144431149955868e-08 -4.1680668241951733e-08 0.0000000000000000e+00  3.0942483347397889e-08 -4.9091115122816594e-08 0.0000000000000000e+00  1.8429813045691088e-08 3.8533243536104483e-08 0.0000000000000000e+00  2.8394638101675665e-08 -3.7503975606823176e-08 0.0000000000000000e+00  2.1143903552494177e-08 4.6611940894376572e-08 0.0000000000000000e+00  4.4273905440200001e-08 -4.6483978514680711e-08 0.0000000000000000e+00  4.1826780863978540e-08 -4.7720509712384335e-08 0.0000000000000000e+00  3.0180608641158047e-08 -4.5729543303173404e-08 0.0000000000000000e+00  2.8095279092452813e-08 4.8751026006393741e-08 0.0000000000000000e+00  3.9929698346569411e-08 -3.9779123549350866e-08 0.0000000000000000e+00  4.0233371187242314e-08 -4.5027936027799321e-08 0.0000000000000000e+00  1.7361997161705451e-08 3.3140892651606516e-08 0.0000000000000000e+00  3.0426342324109733e-08 4.8312400230661251e-08 0.0000000000000000e+00  1.5478977228420882e-08 4.3583222874590964e-08 0.0000000000000000e+00  1.5552667255129659e-08 4.8356139152358451e-08 0.0000000000000000e+00  3.3153620475921315e-08 4.9944138998428041e-08 0.0000000000000000e+00  3.4732639565051210e-08 4.8071312548837150e-08 0.0000000000000000e+00  1.3531763696970151e-08 4.5052572024762289e-08 0.0000000000000000e+00  1.7415407215095055e-08 2.8761309068524381e-08 0.0000000000000000e+00  3.5454666005936829e-08 -4.6523285074199465e-08 0.0000000000000000e+00  3.2555604206822169e-08 -4.5072899770925442e-08 0.0000000000000000e+00  3.7153477603448677e-08 -4.4747474054177805e-08 0.0000000000000000e+00  1.9653805328940228e-08 3.3553227219109185e-08 0.0000000000000000e+00  4.1965747452231257e-08 -4.2878846201345992e-08 0.0000000000000000e+00  1.6512560345848048e-08 -4.5750326441942134e-08 0.0000000000000000e+00  2.2464132906932994e-08 -4.3549454690117335e-08 0.0000000000000000e+00  1.3372455926447228e-08 3.9569863313965106e-08 0.0000000000000000e+00  1.1610833340239055e-08 3.4436260129138618e-08 0.0000000000000000e+00  1.9793727264282029e-08 5.1429960369058130e-08 0.0000000000000000e+00  2.1013374251872448e-08 -4.8044027075868915e-08 0.0000000000000000e+00  3.4121658603960812e-08 5.2823493198215488e-08 0.0000000000000000e+00  3.6452948258541454e-08 -4.9181103009434033e-08 0.0000000000000000e+00  2.0726751660788697e-08 -4.4720625400034560e-08 0.0000000000000000e+00  4.4358443752358842e-08 5.0275777354128684e-08 0.0000000000000000e+00  </DataArray> 
</PointData> 
</Piece>
</UnstructuredGrid>
</VTKFile>