<?xml version="1.0"?>
<VTKFile type="UnstructuredGrid"  version="0.1"  >
<UnstructuredGrid>
<Piece  NumberOfPoints="154" NumberOfCells="263">
<Points>
<DataArray  type="Float64"  NumberOfComponents="3"  format="ascii">0.1123703205721383 0.2058991846814537 0  0.1106537349019303 0.1894643505074813 0  0.09638353741974938 0.2000714351933094 0  0.05342449508507835 0.2075429211394798 0  0.07538689331631335 0.1915913437860124 0  0.0672650767799825 0.2147741308656565 0  0.05117161737686294 0.1453484786271615 0  0.02857713204667383 0.1257839896240973 0  0.02526490062129904 0.1581631022389904 0  0.113396033356459 0.3302102404381194 0  0.1085939559725478 0.3576705955989985 0  0.1291070992617633 0.3369603185042253 0  0.04799722681612224 0.1900185640389302 0  7.911638504982306e-23 0.3514285714286952 0  0.03215860863953258 0.3311111528616799 0  0.02400568903471712 0.3538156226164236 0  0.09145622793395011 0.1756683706361973 0  0.09635235883477168 0.1596075792822043 0  0.07646202800478091 0.1687797286366022 0  0.1521457199348437 0.2144902684393899 0  0.1547844879126531 0.221343792228163 0  0.1460075728779285 0.2155962489982186 0  0.07781669174089231 0.1514290824568959 0  0.06224767553234683 0.1604995266993196 0  1.18747587396576e-22 0.1464285714289574 0  0.09921288367247014 0.2166946625656797 0  1.055614789344934e-22 0.3221428571430699 0  0.1022973579647201 0.2738327075876005 0  0.1121797265901506 0.2575979076482852 0  0.1185633369347103 0.2730180005148713 0  0.09898735489927445 0.1862328054802762 0  0.05939557786775921 0.3149959312712439 0  0.03411208962185659 0.3013215659347018 0  0.1503931787109216 0.2526588003744317 0  0.1407380249647416 0.2442702402136298 0  0.1431107634375784 0.259923150371347 0  0.0919176845701902 0.3399085496464175 0  0.1291788130815266 0.2400383583702321 0  0.1325524372715704 0.2548935642270382 0  0.06140001986584975 0.41 0  0.0848502841368373 0.3801878894987152 0  0.05922041590806365 0.3774662180450731 0  0.1314212888740881 0.2277906734531759 0  0.120884488830472 0.2181174193266015 0  0.1226333671271771 0.2325106324830493 0  0.09377624077128965 0.41 0  0.09380354677001672 0.257610335642883 0  0.1315673264360946 0.2153402193123699 0  0.08319523140208938 0.2132941404805451 0  0.05506330922270958 0.2425906910896715 0  0.03234826565931184 0.2322324086136777 0  0.03317243958900732 0.257660597167711 0  0.06554683922737971 0.3354811346228477 0  0.1329738840903824 0.2702078483163437 0  0.1310429096850632 0.2846996684530492 0  0.05202661716099004 0.3533575075836699 0  0.03417805682304954 0.3756899209609617 0  0.144083690035565 0.2215292492618533 0  0.142790797437363 0.2321509241374541 0  0.1544087616029329 0.2357511107996664 0  0.1491199430209888 0.2423606338381515 0  0.1502095132440633 0.2281485442432038 0  2.528420567067531e-24 0.3807142857143437 0  0.1096100191434126 0.1735927402662552 0  7.499459636142812e-23 0.2050000000005308 0  1.312051212317229e-22 0.175714285714732 0  0.02618732161578571 0.1853858037736424 0  0.1229367514781928 0.1942457806055766 0  0.1362499342244512 0.2216212759724809 0  0.06019563961579118 0.1756854756393659 0  1.469758157785502e-22 0.1171428571431897 0  0.1307667548455415 0.3010055386525303 0  0.145225238640976 0.2894662793659415 0  0.1287841736454479 0.3539199500483322 0  0.03021152775980383 0.2085417427452555 0  0.1391387154530224 0.1858795039566813 0  0.1459317304070258 0.1790663047917665 0  0.135536484016996 0.1738833722588765 0  0.1571325384155291 0.245420832433524 0  0.1664698576552201 0.2475710667651783 0  0.160462993436545 0.2557896837198637 0  0.1110099886287357 0.384786061980574 0  0.1550673803622619 0.2649231011015153 0  0.1583987151778488 0.2277368545647528 0  0.1629104300036858 0.2335315343742052 0  0.05222344848729081 0.2265528830530372 0  0.109956059568483 0.218959182369412 0  0.04764927139886715 0.2783519852734516 0  0.02152649058072123 0.2799149390500376 0  0.1682222986671726 0.2386028198193036 0  0.1742197252833576 0.2428413052501257 0  9.901439025854896e-23 0.29285714285744 0  0.1547844879126891 0.178656207771761 0  0.1521457199348551 0.1855097315605723 0  0.0174488773731666 0.3130376221275454 0  0.08173140629531826 0.3240333402515863 0  0.1448024848921614 0.3470012986835023 0  0.1305545251322139 0.3723897679568218 0  0.1154541352966486 0.2885587141571139 0  0.1230772536189115 0.2499756432686074 0  0.1505393388476328 0.2073241380633295 0  0.1411842281574282 0.2116419272150939 0  0.09198888884196009 0.2415872275674053 0  0.07716758781649669 0.2463139681986327 0  0.146124697978421 0.2700602237881319 0  0.128717465615168 0.1840209967358136 0  7.942349247460956e-23 0.2635714285718054 0  0.1497984745966837 0.3068859877039131 0  0.15 0.2 0  0.1505393388476355 0.1926758619366523 0  0.1422411175943012 0.194905815392995 0  0.1190105354818799 0.1821161895874727 0  0.08448868733773844 0.2754280182762799 0  0.1424189635448312 0.2037346188094638 0  0.0755847667741158 0.2617899588572735 0  0.1142664763498284 0.2274815755179158 0  0.0206009944011879 0.3930565468906536 0  0.07847514215827836 0.3566825941062478 0  0.01618625390283531 0.242762864856864 0  0.1151045388821312 0.1585853771023917 0  0.07646729146378585 0.2901167207444526 0  0.09695014599916706 0.2918652390563171 0  0.08032907912225726 0.3068841880507689 0  0.1231197498179433 0.172498362243373 0  0.09752994025002161 0.3073328921883999 0  0.1273239957535623 0.41 0  0.1031735884559645 0.2318499084697057 0  0.05856642335187166 0.2956286427951659 0  0.1125203981290352 0.3075256508232952 0  0.09922202550628587 0.3226625203517063 0  0.1618787593980117 0.2400587830532449 0  0.05876233091775281 0.2607580723641963 0  0.1358257021079793 0.235658601603447 0  0.1253997872382666 0.2064221316692116 0  0.1239310874326094 0.261677877574652 0  0.0426377788010906 0.3932630585163461 0  0.1147956456655679 0.2412599220977713 0  0.1461362678015806 0.1877340005483344 0  0.04532662811343335 0.1677660336533811 0  0.1334939238095764 0.1996994263118459 0  0.07392428137762509 0.231099054038832 0  0.09023873136988203 0.227248794677899 0  0.1416335254405541 0.2787697801365986 0  0.1298745109799687 0.3189009677473308 0  0.0150527870407641 0.222744307726099 0  0.1340866100492165 0.2075382311767602 0  0.1441753955243561 0.3262649734047864 0  0.1332362443980815 0.1910280011248228 0  0.1028755456201582 0.2468432343051075 0  0.1528570909234511 0.2778516772982005 0  5.764954039310013e-23 0.41 0  0.03015443760436654 0.41 0  1.813220654309261e-22 0.2342857142861561 0  0.0667646893919349 0.276414203923719 0  </DataArray>
</Points>
<Cells>
<DataArray  type="UInt32"  Name="connectivity"  format="ascii">0 1 2  3 4 5  6 7 8  9 10 11  3 4 12  13 14 15  16 17 18  19 20 21  6 22 23  24 7 8  0 2 25  13 26 14  27 28 29  2 4 30  31 14 32  33 34 35  36 9 10  37 38 34  22 17 18  39 40 41  42 43 44  45 39 40  27 28 46  16 4 30  47 42 43  48 4 5  49 50 51  31 14 52  53 29 54  55 56 15  20 57 21  55 14 15  58 59 60  38 34 35  20 57 61  48 2 4  62 56 15  55 14 52  63 1 30  16 63 17  64 65 66  0 1 67  16 63 30  58 57 68  69 4 12  24 70 7  71 72 54  73 10 11  64 66 74  75 76 77  78 79 80  45 40 81  33 35 82  83 84 59  49 50 85  65 66 8  0 25 86  87 32 88  89 90 79  91 32 88  58 59 61  16 4 18  92 93 76  91 32 94  53 38 35  33 78 80  87 51 88  36 95 52  26 14 94  73 96 97  27 98 29  48 2 25  37 38 99  100 101 21  58 42 68  102 46 103  58 34 60  53 104 35  62 13 15  105 75 77  55 56 41  106 51 88  57 101 21  71 72 107  108 109 110  63 1 111  27 46 112  100 101 113  114 46 103  115 43 44  114 46 112  62 56 116  33 80 82  36 52 117  106 51 118  63 17 119  83 59 61  98 29 54  120 121 122  100 19 21  63 119 123  71 98 54  124 121 122  57 101 68  58 57 61  104 35 82  125 45 81  115 126 86  27 98 121  3 74 85  87 32 127  65 24 8  124 128 129  84 59 130  49 51 131  31 32 127  120 121 112  20 83 61  89 79 130  58 42 132  0 67 133  125 81 97  47 42 68  53 38 134  9 128 129  39 41 135  37 136 44  93 76 137  66 138 12  37 136 99  1 2 30  33 78 60  69 4 18  66 8 138  58 34 132  27 121 112  108 110 113  87 51 131  50 74 85  139 110 113  48 140 141  71 98 128  25 126 86  69 138 12  139 67 133  109 110 137  6 8 138  53 104 142  114 103 131  102 140 141  40 81 10  40 10 117  36 9 129  71 107 143  49 103 131  47 101 68  115 136 126  108 100 113  64 74 144  9 128 143  139 113 145  36 10 117  115 136 44  146 107 143  33 34 60  48 25 141  139 67 147  102 140 103  37 42 132  105 77 123  91 106 88  71 128 143  105 75 147  78 59 130  78 79 130  14 32 94  26 91 94  37 34 132  28 136 99  75 110 147  48 140 5  47 133 43  49 140 85  28 136 148  75 76 137  105 67 111  75 110 137  101 113 145  98 121 128  120 127 122  49 140 103  105 67 147  78 59 60  28 46 148  140 5 85  50 51 118  31 127 122  37 42 44  139 133 145  104 149 82  53 29 134  3 74 12  0 133 43  55 52 117  55 41 117  73 10 97  150 151 116  47 133 145  150 62 116  124 121 128  139 110 147  124 95 122  106 152 118  47 101 145  38 99 134  124 95 129  39 151 135  25 126 141  53 54 142  28 29 134  152 64 144  120 127 153  40 41 117  84 89 130  66 74 12  31 95 122  1 67 111  81 10 97  93 109 137  69 138 23  50 118 144  136 126 148  102 46 148  69 18 23  104 149 142  36 95 129  31 95 52  72 54 142  63 123 111  28 99 134  87 127 153  0 43 86  56 135 116  22 18 23  152 118 144  105 123 111  102 126 141  151 135 116  102 126 148  6 138 23  72 149 142  56 41 135  115 43 86  3 5 85  50 74 144  120 112 153  114 131 153  146 143 11  146 96 11  114 112 153  87 131 153  9 143 11  73 96 11  </DataArray>
<DataArray  type="UInt32"  Name="offsets"  format="ascii">3 6 9 12 15 18 21 24 27 30 33 36 39 42 45 48 51 54 57 60 63 66 69 72 75 78 81 84 87 90 93 96 99 102 105 108 111 114 117 120 123 126 129 132 135 138 141 144 147 150 153 156 159 162 165 168 171 174 177 180 183 186 189 192 195 198 201 204 207 210 213 216 219 222 225 228 231 234 237 240 243 246 249 252 255 258 261 264 267 270 273 276 279 282 285 288 291 294 297 300 303 306 309 312 315 318 321 324 327 330 333 336 339 342 345 348 351 354 357 360 363 366 369 372 375 378 381 384 387 390 393 396 399 402 405 408 411 414 417 420 423 426 429 432 435 438 441 444 447 450 453 456 459 462 465 468 471 474 477 480 483 486 489 492 495 498 501 504 507 510 513 516 519 522 525 528 531 534 537 540 543 546 549 552 555 558 561 564 567 570 573 576 579 582 585 588 591 594 597 600 603 606 609 612 615 618 621 624 627 630 633 636 639 642 645 648 651 654 657 660 663 666 669 672 675 678 681 684 687 690 693 696 699 702 705 708 711 714 717 720 723 726 729 732 735 738 741 744 747 750 753 756 759 762 765 768 771 774 777 780 783 786 789 </DataArray>
<DataArray  type="UInt8"  Name="types"  format="ascii">5 5 5 5 5 5 5 5 5 5 5 5 5 5 5 5 5 5 5 5 5 5 5 5 5 5 5 5 5 5 5 5 5 5 5 5 5 5 5 5 5 5 5 5 5 5 5 5 5 5 5 5 5 5 5 5 5 5 5 5 5 5 5 5 5 5 5 5 5 5 5 5 5 5 5 5 5 5 5 5 5 5 5 5 5 5 5 5 5 5 5 5 5 5 5 5 5 5 5 5 5 5 5 5 5 5 5 5 5 5 5 5 5 5 5 5 5 5 5 5 5 5 5 5 5 5 5 5 5 5 5 5 5 5 5 5 5 5 5 5 5 5 5 5 5 5 5 5 5 5 5 5 5 5 5 5 5 5 5 5 5 5 5 5 5 5 5 5 5 5 5 5 5 5 5 5 5 5 5 5 5 5 5 5 5 5 5 5 5 5 5 5 5 5 5 5 5 5 5 5 5 5 5 5 5 5 5 5 5 5 5 5 5 5 5 5 5 5 5 5 5 5 5 5 5 5 5 5 5 5 5 5 5 5 5 5 5 5 5 5 5 5 5 5 5 5 5 5 5 5 5 5 5 5 5 5 5 5 5 5 5 5 5 </DataArray>
</Cells>
<PointData  Vectors="d"> 
<DataArray  type="Float64"  Name="d"  NumberOfComponents="3" format="ascii">1.2740930754778650e-10 5.4262693593994623e-11 0.0000000000000000e+00  1.3013657380808647e-10 -3.7175874892275634e-11 0.0000000000000000e+00  1.3394379133527468e-10 2.3237407233513805e-11 0.0000000000000000e+00  9.6480058828575285e-11 3.7774273523260497e-11 0.0000000000000000e+00  1.2322814904367566e-10 -1.2043589778295563e-11 0.0000000000000000e+00  1.1871912566122573e-10 7.2915666587404176e-11 0.0000000000000000e+00  1.0717662919502966e-10 -1.1547796907995549e-10 0.0000000000000000e+00  6.2982087986193892e-11 -7.8228762114774923e-11 0.0000000000000000e+00  5.0601584116503156e-11 -4.0576242981825840e-11 0.0000000000000000e+00  4.1333913042299240e-10 7.4612109949736674e-10 0.0000000000000000e+00  3.0113836919431340e-10 5.4254615721756409e-10 0.0000000000000000e+00  5.2292982018076150e-10 9.4921831059181658e-10 0.0000000000000000e+00  8.6785024981033895e-11 -8.7802793996483019e-12 0.0000000000000000e+00  0.0000000000000000e+00 0.0000000000000000e+00 0.0000000000000000e+00  7.6894518617869851e-11 1.3242927329124922e-10 0.0000000000000000e+00  4.5892074834993409e-11 8.0153598790203557e-11 0.0000000000000000e+00  1.4502772897907098e-10 -9.5225680852271383e-11 0.0000000000000000e+00  1.7302888090270822e-10 -1.8630711111510277e-10 0.0000000000000000e+00  1.3631574310911335e-10 -1.0283807636107163e-10 0.0000000000000000e+00  0.0000000000000000e+00 0.0000000000000000e+00 0.0000000000000000e+00  0.0000000000000000e+00 0.0000000000000000e+00 0.0000000000000000e+00  4.0380575057984427e-11 4.4887273390958569e-11 0.0000000000000000e+00  1.5624843509190094e-10 -1.7258305436871344e-10 0.0000000000000000e+00  1.2013081118812534e-10 -1.0413798723830701e-10 0.0000000000000000e+00  0.0000000000000000e+00 0.0000000000000000e+00 0.0000000000000000e+00  1.4492454565463111e-10 1.1289445156295650e-10 0.0000000000000000e+00  0.0000000000000000e+00 0.0000000000000000e+00 0.0000000000000000e+00  2.8799397567353614e-10 4.8742913043633322e-10 0.0000000000000000e+00  2.6362259721844329e-10 4.3147869969895945e-10 0.0000000000000000e+00  3.4934810860043356e-10 6.1045033911580086e-10 0.0000000000000000e+00  1.3782280812793596e-10 -4.8924059496750898e-11 0.0000000000000000e+00  1.6396553284840703e-10 2.8219975020399653e-10 0.0000000000000000e+00  8.8871399340547698e-11 1.4649556207950521e-10 0.0000000000000000e+00  2.8100320990669888e-10 5.0773983935433741e-10 0.0000000000000000e+00  2.1241427344591781e-10 3.6044552046767776e-10 0.0000000000000000e+00  3.4864015494610558e-10 6.2733380421943054e-10 0.0000000000000000e+00  2.7067166492027104e-10 4.8399470566419519e-10 0.0000000000000000e+00  1.9820707321853604e-10 3.0968571026864940e-10 0.0000000000000000e+00  2.8887837957198729e-10 4.9830673024803085e-10 0.0000000000000000e+00  0.0000000000000000e+00 0.0000000000000000e+00 0.0000000000000000e+00  1.2286712325940866e-10 2.2012180260782147e-10 0.0000000000000000e+00  8.0268378783905087e-11 1.4268611719174765e-10 0.0000000000000000e+00  1.3850342956918321e-10 1.8727101859390634e-10 0.0000000000000000e+00  1.3150116043683109e-10 1.2632981193691040e-10 0.0000000000000000e+00  1.7068222976841223e-10 2.3534926196518497e-10 0.0000000000000000e+00  0.0000000000000000e+00 0.0000000000000000e+00 0.0000000000000000e+00  2.2050007952796880e-10 3.4093652538683478e-10 0.0000000000000000e+00  1.0050394371254343e-10 9.4796553584794701e-11 0.0000000000000000e+00  1.3476491695996841e-10 8.2349714202009805e-11 0.0000000000000000e+00  1.1676503231239213e-10 1.3885152637472497e-10 0.0000000000000000e+00  6.6254868385902926e-11 6.2802834163672690e-11 0.0000000000000000e+00  7.6610093277101825e-11 1.0276768812012336e-10 0.0000000000000000e+00  1.7111033747215211e-10 3.0094704232027422e-10 0.0000000000000000e+00  3.9651813580534481e-10 7.0977514420086555e-10 0.0000000000000000e+00  4.7408915143411663e-10 8.5852719977407027e-10 0.0000000000000000e+00  1.0829384265686055e-10 1.9081838597472488e-10 0.0000000000000000e+00  4.4281563476265431e-11 7.8120077851113284e-11 0.0000000000000000e+00  6.8534238695454037e-11 9.0091270611300579e-11 0.0000000000000000e+00  1.2463110619805800e-10 1.9435614267798698e-10 0.0000000000000000e+00  9.2280893954919305e-11 1.5870426479198913e-10 0.0000000000000000e+00  1.7715909080589849e-10 3.0817852485930755e-10 0.0000000000000000e+00  6.4832342628503040e-11 1.0132801879438849e-10 0.0000000000000000e+00  0.0000000000000000e+00 0.0000000000000000e+00 0.0000000000000000e+00  1.5238557833032940e-10 -1.2883606736934051e-10 0.0000000000000000e+00  0.0000000000000000e+00 0.0000000000000000e+00 0.0000000000000000e+00  0.0000000000000000e+00 0.0000000000000000e+00 0.0000000000000000e+00  4.9268451907512405e-11 -9.8418599498592721e-12 0.0000000000000000e+00  1.0825411874199801e-10 -1.3345618963598759e-11 0.0000000000000000e+00  1.0202282933019760e-10 1.2518755920483541e-10 0.0000000000000000e+00  1.0888131953555881e-10 -5.5982165010957493e-11 0.0000000000000000e+00  0.0000000000000000e+00 0.0000000000000000e+00 0.0000000000000000e+00  5.3995899157442923e-10 9.8357580047340015e-10 0.0000000000000000e+00  6.1867514101821388e-10 1.1415157986188740e-09 0.0000000000000000e+00  4.4782569372982115e-10 8.1002846542779841e-10 0.0000000000000000e+00  5.7243052298258942e-11 2.3057168627195029e-11 0.0000000000000000e+00  6.7724777840435042e-11 -4.5399469509242044e-11 0.0000000000000000e+00  5.4070061863344086e-11 -5.7505659284406168e-11 0.0000000000000000e+00  1.1440915649623017e-10 -1.2568991685888858e-10 0.0000000000000000e+00  1.7996763455809898e-10 3.2596088874715614e-10 0.0000000000000000e+00  1.6533702376924019e-10 3.0902967033367385e-10 0.0000000000000000e+00  3.2058030912165504e-10 5.9693633622230279e-10 0.0000000000000000e+00  1.6750223359112910e-10 3.0140500780458588e-10 0.0000000000000000e+00  4.4220512571184864e-10 8.2103280482468971e-10 0.0000000000000000e+00  0.0000000000000000e+00 0.0000000000000000e+00 0.0000000000000000e+00  0.0000000000000000e+00 0.0000000000000000e+00 0.0000000000000000e+00  1.0153978702300442e-10 8.8496813201023507e-11 0.0000000000000000e+00  1.4527962408963976e-10 1.3255288219524282e-10 0.0000000000000000e+00  1.2166317253621127e-10 1.8927469152283766e-10 0.0000000000000000e+00  5.3657835570399590e-11 8.1864904748278364e-11 0.0000000000000000e+00  0.0000000000000000e+00 0.0000000000000000e+00 0.0000000000000000e+00  0.0000000000000000e+00 0.0000000000000000e+00 0.0000000000000000e+00  0.0000000000000000e+00 0.0000000000000000e+00 0.0000000000000000e+00  0.0000000000000000e+00 0.0000000000000000e+00 0.0000000000000000e+00  0.0000000000000000e+00 0.0000000000000000e+00 0.0000000000000000e+00  4.3896823326860193e-11 7.3464678281884086e-11 0.0000000000000000e+00  2.4489153772515561e-10 4.3244414200235610e-10 0.0000000000000000e+00  6.3484080376780345e-10 1.1516905039017511e-09 0.0000000000000000e+00  3.3715215329872089e-10 6.0774032320060632e-10 0.0000000000000000e+00  3.9266305437169261e-10 6.9815436537195367e-10 0.0000000000000000e+00  2.4826425715894860e-10 4.0539619433549513e-10 0.0000000000000000e+00  0.0000000000000000e+00 0.0000000000000000e+00 0.0000000000000000e+00  5.6283509871702835e-11 4.8650348811288943e-11 0.0000000000000000e+00  1.8168646229277870e-10 2.4232523330939229e-10 0.0000000000000000e+00  1.6435332436711437e-10 2.1894964930133001e-10 0.0000000000000000e+00  4.5885549928535066e-10 8.4161382771494660e-10 0.0000000000000000e+00  1.0612594075381191e-10 -6.8643594217139074e-11 0.0000000000000000e+00  0.0000000000000000e+00 0.0000000000000000e+00 0.0000000000000000e+00  7.6299286304811888e-10 1.4086166147378811e-09 0.0000000000000000e+00  0.0000000000000000e+00 0.0000000000000000e+00 0.0000000000000000e+00  0.0000000000000000e+00 0.0000000000000000e+00 0.0000000000000000e+00  4.2468084560338372e-11 -7.4531696491914585e-12 0.0000000000000000e+00  1.2896618973032194e-10 -8.2195534526162225e-11 0.0000000000000000e+00  2.2916971326529844e-10 3.7566525648395397e-10 0.0000000000000000e+00  4.1346777252514394e-11 1.6961912306275429e-11 0.0000000000000000e+00  1.8268407644784774e-10 2.7547088569161336e-10 0.0000000000000000e+00  1.6103006092048537e-10 1.9214454799292255e-10 0.0000000000000000e+00  1.3285666440942532e-11 2.3448199597402341e-11 0.0000000000000000e+00  1.7827361726447033e-10 3.1793696872189551e-10 0.0000000000000000e+00  3.4945255292430073e-11 3.8904297991767662e-11 0.0000000000000000e+00  1.9173489057625022e-10 -2.3757142001413233e-10 0.0000000000000000e+00  2.1900181418523060e-10 3.6867845675881631e-10 0.0000000000000000e+00  3.0490438115291449e-10 5.3033162094677082e-10 0.0000000000000000e+00  2.4329485047629855e-10 4.2288012436141153e-10 0.0000000000000000e+00  1.4488714848446181e-10 -1.4514639549998527e-10 0.0000000000000000e+00  3.2434323960076448e-10 5.7402159349672571e-10 0.0000000000000000e+00  0.0000000000000000e+00 0.0000000000000000e+00 0.0000000000000000e+00  1.7182832417355956e-10 2.0912934938832579e-10 0.0000000000000000e+00  1.6084210663122274e-10 2.6781578512508429e-10 0.0000000000000000e+00  4.1347063316575760e-10 7.4236407583013537e-10 0.0000000000000000e+00  3.3256553129518794e-10 5.9435454876458396e-10 0.0000000000000000e+00  8.3889416211634605e-11 1.5196074505129080e-10 0.0000000000000000e+00  1.3937422615565508e-10 2.0061431131712012e-10 0.0000000000000000e+00  1.6524238701699944e-10 2.5658103252894352e-10 0.0000000000000000e+00  1.0449924125669791e-10 5.1375434717729427e-11 0.0000000000000000e+00  3.1197843086440749e-10 5.3674712914469087e-10 0.0000000000000000e+00  2.8778644427013246e-11 5.1018560147424431e-11 0.0000000000000000e+00  2.0438791601747682e-10 3.0104753725375345e-10 0.0000000000000000e+00  3.1449575110257785e-11 -2.0667340971369364e-11 0.0000000000000000e+00  8.6691769142289741e-11 -5.6818835864088006e-11 0.0000000000000000e+00  7.6917575639800843e-11 1.1267920299017684e-11 0.0000000000000000e+00  1.4022304822944148e-10 1.4631844364770008e-10 0.0000000000000000e+00  1.5491545619221091e-10 1.5985721999527742e-10 0.0000000000000000e+00  5.0877889316393471e-10 9.3187640613564381e-10 0.0000000000000000e+00  5.5812998612091746e-10 1.0162827717159873e-09 0.0000000000000000e+00  3.0042858156715955e-11 2.1995167941775539e-11 0.0000000000000000e+00  7.9363199823331111e-11 4.6909051472484478e-11 0.0000000000000000e+00  7.0647709927190759e-10 1.2917378705553287e-09 0.0000000000000000e+00  8.2188988283780969e-11 -2.8406633334199492e-11 0.0000000000000000e+00  2.1016009507514797e-10 3.0983166020215090e-10 0.0000000000000000e+00  5.8636402952021373e-10 1.0906047663511120e-09 0.0000000000000000e+00  0.0000000000000000e+00 0.0000000000000000e+00 0.0000000000000000e+00  0.0000000000000000e+00 0.0000000000000000e+00 0.0000000000000000e+00  0.0000000000000000e+00 0.0000000000000000e+00 0.0000000000000000e+00  1.7487239369834249e-10 2.7816207022231758e-10 0.0000000000000000e+00  </DataArray> 
</PointData> 
</Piece>
</UnstructuredGrid>
</VTKFile>