<?xml version="1.0"?>
<VTKFile type="UnstructuredGrid"  version="0.1"  >
<UnstructuredGrid>
<Piece  NumberOfPoints="439" NumberOfCells="725">
<Points>
<DataArray  type="Float64"  NumberOfComponents="3"  format="ascii">0.5648876957197264 0.05799795744794724 0  0.5751157648264673 0.075296860508637 0  0.2489897949 0.21 0  0.2489897949 0.19 0  0.570001766249695 0.06664745305673955 0  0.2496355385699469 0.2060260530378829 0  0.249959460510575 0.2020130349814059 0  0.2499594605105767 0.1979869650186357 0  0.24963553856995 0.1939739469621422 0  0.254104706212561 0.2098501393444596 0  0.2592370197907681 0.2096828024635523 0  0.264366345005435 0.2094679430216662 0  0.2694804665332982 0.2091091004992348 0  0.2745804573475851 0.208671077200964 0  0.2796794575649202 0.2081217214901652 0  0.2847545819902745 0.2075139374446877 0  0.2898026043206603 0.2068053210148697 0  0.2948420788035682 0.2060157490473094 0  0.2998594195470382 0.2051462871960032 0  0.3048684615486073 0.2041679790197407 0  0.3098731807185711 0.2031713540343097 0  0.3148319372676834 0.2020566841168845 0  0.3198022110511149 0.2008733292489718 0  0.3247263880613391 0.1996345925024765 0  0.3296363153132543 0.198307492800605 0  0.334525043253197 0.1969311387256456 0  0.3393854411720252 0.195470971354309 0  0.3442230093035355 0.1939771065210607 0  0.3490383970369516 0.192411395160441 0  0.3538300232686711 0.190796941934179 0  0.3585964715969444 0.1891347140229366 0  0.3633456132724133 0.1873905434754375 0  0.3680905045621148 0.1856341441057816 0  0.3727979825857858 0.1838083078058914 0  0.3774858131368129 0.1819539706743755 0  0.3821520230571308 0.1800464985319011 0  0.3867975214139664 0.178101543048043 0  0.3914200865521713 0.1761217555747062 0  0.3960250210151093 0.1740809795422916 0  0.4006267679119171 0.1720343503163821 0  0.4051911239489966 0.1699394035568575 0  0.4097404444038567 0.1678025870785637 0  0.4142845418228566 0.1656563526449222 0  0.4187963398175812 0.1634672915972737 0  0.423305797649599 0.1612534130393264 0  0.4277893054528826 0.1590159459494974 0  0.432265455244528 0.1567460677679376 0  0.4367219961270106 0.1544614397476143 0  0.4411627892027944 0.1521509015721857 0  0.4455949832496405 0.1498214275807673 0  0.4500152454352196 0.1474708309027634 0  0.4544189698515675 0.1451032094031717 0  0.4588156045342409 0.1427194148913903 0  0.4632012898633345 0.1403177596941801 0  0.4675730992753355 0.1379022379751443 0  0.4719380088539482 0.1354739689425039 0  0.4762937524379195 0.1330313417289613 0  0.4806387276399315 0.1305786826370576 0  0.4849779549882259 0.1281161499473019 0  0.489309853418931 0.125642718959053 0  0.4936332075396181 0.1231617024106869 0  0.4979519928610359 0.1206734694506834 0  0.5022649552337284 0.1181772804951826 0  0.5065714267943331 0.1156758383487469 0  0.5108746290370206 0.1131690847468531 0  0.515173430158842 0.1106570996614884 0  0.5194679286953114 0.1081414578552502 0  0.5237588979636728 0.1056232465812262 0  0.5280462769532819 0.1031018100391789 0  0.5323313111626191 0.1005775191843892 0  0.5366155850026624 0.09805296356029569 0  0.5408967797523572 0.09552601588652447 0  0.5451772532959228 0.0929980353838144 0  0.5494560773218288 0.09046973725295883 0  0.5537336780782278 0.08794069774437199 0  0.5580108732958322 0.08541178771926503 0  0.5622873530255209 0.08288282202092005 0  0.5665635294562977 0.08035388648937639 0  0.5708396935630263 0.07782532453022595 0  0.5606116534103772 0.0605263180282396 0  0.5563358148378914 0.0630547424125044 0  0.5520602199689315 0.06558328698245032 0  0.5477849557239973 0.06811163763529803 0  0.5435098997374679 0.07063948188575113 0  0.5392352112236218 0.07316695929555041 0  0.5349606773020313 0.07569303973037896 0  0.5306866919730324 0.07821752662263586 0  0.5264123974091945 0.08074084840061761 0  0.5221380346505817 0.08326103609545789 0  0.5178638040932497 0.08577934265619784 0  0.5135881932208174 0.08829386741637173 0  0.5093121299802797 0.09080301566772531 0  0.5050368699559951 0.09331049685584451 0  0.5007586360487974 0.09581132964527943 0  0.4964793237289534 0.09830356999793918 0  0.492200679513932 0.1007932462951412 0  0.4879167865492808 0.1032733007617286 0  0.4836312135568986 0.1057416161002937 0  0.4793463171894181 0.1082064593214587 0  0.4750537714429629 0.1106581803924703 0  0.4707587000616636 0.1130943946418113 0  0.4664642810050991 0.1155261376881134 0  0.4621594855239635 0.1179408854825313 0  0.4578512209101436 0.1203355507882025 0  0.4535424340435768 0.1227227107522165 0  0.4492240649141915 0.1250910190529455 0  0.4448995030030063 0.1274335767334565 0  0.4405739545387297 0.1297711614996395 0  0.4362311694781313 0.1320834731013816 0  0.431884546418785 0.1343619425855163 0  0.4275379845401523 0.1366323391116163 0  0.423175188026701 0.1388699446463036 0  0.418803717611219 0.1410910793626145 0  0.4144229064774246 0.1432830374536821 0  0.4100264249792369 0.1454399668860365 0  0.4056311816991466 0.1475749530780876 0  0.4012179434216776 0.1496749823066728 0  0.3967997922781009 0.1517426430659175 0  0.3923721183679961 0.1537730443455834 0  0.3879289015079193 0.1557653152393013 0  0.383467773467721 0.1577307364523583 0  0.3789909439161013 0.1596524873036346 0  0.37452309855481 0.1615367992542253 0  0.3700228834126313 0.1633760386008146 0  0.3655249661755551 0.1651604006595138 0  0.3610007793869884 0.1669122720183825 0  0.3564660461244721 0.1686032793219408 0  0.3519118624597533 0.1702604772964878 0  0.3473397959963538 0.171859499526286 0  0.3427820088524751 0.1734120102754133 0  0.3381862334681898 0.1749076964844389 0  0.3335992346410437 0.176332047632498 0  0.3289729388833273 0.1777106692786921 0  0.3243373094579725 0.1790003454353869 0  0.3197052966281401 0.1802697525044667 0  0.3150425687713427 0.1814456334899516 0  0.3104011819941219 0.1825543719159204 0  0.3057179664005448 0.1836031297656163 0  0.3010290511526794 0.1845570366990697 0  0.2963242979909896 0.1854599984192081 0  0.2916052678746688 0.1862722120751056 0  0.2869081929249119 0.1870208858143126 0  0.2821686067178807 0.187687939362003 0  0.2774559390914207 0.188269818947631 0  0.2727104217334914 0.1887534174751408 0  0.2679880700539085 0.189151405001114 0  0.2632431746765835 0.1894870062330767 0  0.2584931232895538 0.1897209868243312 0  0.2537431339372188 0.1898394330604061 0  0.567444779891238 0.06232267713758588 0  0.5725587072817022 0.07097219467377176 0  0.2589888927423616 0.2003999071190221 0  0.5208162771781097 0.09570430618633358 0  0.5425170336747953 0.08286644050729035 0  0.2774558003294166 0.1992492673290716 0  0.4953583009198419 0.1104710113162716 0  0.5082329299909327 0.1029742253603939 0  0.2941490459069571 0.1953918920262762 0  0.5548728424605204 0.07506084079775859 0  0.3098628081838608 0.1930075769815129 0  0.3358049695500531 0.1870727187339123 0  0.4824500419057087 0.1179030644492033 0  0.3529515546941676 0.1805827939083989 0  0.4694960190895919 0.1252468098403464 0  0.3674645079255504 0.1752460051692576 0  0.3851977022719278 0.167952589106026 0  0.4559848520068298 0.1323367148470141 0  0.4431172399169915 0.1398132028794974 0  0.3984779711313525 0.1621658721245318 0  0.4122087782323632 0.1555804051554902 0  0.4293777306110797 0.1469913253396667 0  0.3194384970892096 0.1907781615460111 0  0.5340200358343647 0.08791104717890025 0  0.4198031433263515 0.1516773397482444 0  0.3449282074081845 0.1834778178741219 0  0.3773969297667224 0.171409517394585 0  0.2859185170107396 0.1973975670870405 0  0.5614258325325993 0.06966984607301824 0  0.2680747102624252 0.2009913605702618 0  0.4507427401134161 0.1382826953872967 0  0.4768180305419529 0.1238200922156534 0  0.4897633343440861 0.1164241262867527 0  0.3910886344114113 0.1629141235118198 0  0.4638162663785601 0.1311162321424487 0  0.5026649883881951 0.108953329190779 0  0.4375812989661364 0.145289099396294 0  0.5155347699727661 0.1014292830273451 0  0.4045452941585179 0.1567399618468612 0  0.3591561064686474 0.1759536561367477 0  0.3025450309246874 0.1922601703179829 0  0.5474722047193601 0.07734422213781318 0  0.5256850877500694 0.08948845149339557 0  0.3278646977720596 0.1914909920506059 0  0.5273363967813356 0.09634184216845774 0  0.3280381078739432 0.1844573530636283 0  0.5143225318986585 0.09500497424869342 0  0.5014754818310934 0.1025252309632512 0  0.488606013185502 0.1099908944653382 0  0.5524974980055254 0.08152259662054537 0  0.3015511453712619 0.1986867153088284 0  0.4627586476053488 0.1246678669420847 0  0.4757043017981772 0.1173802611035739 0  0.3915507598936571 0.1694137183902304 0  0.3591915627973771 0.1824626366185338 0  0.4458974482397331 0.1339105562430238 0  0.4366839074472262 0.1388199036086144 0  0.4051580116873198 0.1632307311057038 0  0.2557011792322028 0.1960212178289704 0  0.2550730589859782 0.2033932143652872 0  0.427603651550251 0.1521535997653854 0  0.3696976524045361 0.1702803660786783 0  0.337861983571577 0.1814210712378237 0  0.2807194992703305 0.1940624363030417 0  0.2904711442836969 0.1927195644758086 0  0.4185560426021738 0.1568741131964971 0  0.3468557274146329 0.1784981256670918 0  0.3789578122278825 0.1663019110994045 0  0.3150350410992419 0.1878802555553835 0  0.5391991966944283 0.08927493011848725 0  0.5355126107360224 0.08246040498217469 0  0.3164259680265749 0.19547425036114 0  0.2706945399197511 0.1950281607818526 0  0.5614335230587655 0.07722738932144356 0  0.4237272882540919 0.1447746643377063 0  0.4146918397373947 0.1497574652783722 0  0.3400922774091696 0.1898826539795458 0  0.2813309344082473 0.20276996285712 0  0.2919370959445732 0.2012827929076585 0  0.3728784362631983 0.1779607647978705 0  0.3495120621371519 0.1872199931505464 0  0.3822407086062229 0.1748214047251498 0  0.2645699216482632 0.1957185447958434 0  0.5671598737943615 0.07304573408700124 0  0.5090351381378637 0.09754599467389322 0  0.4961813346570541 0.1050462055787356 0  0.3073990848948226 0.1979871765658759 0  0.4833022214775 0.1124833695555449 0  0.5477117646720336 0.0849032603038221 0  0.4703871751306253 0.1198342960843353 0  0.4574606972937643 0.1270474
[...]
<PointData  Vectors="f_20-1"> 
<DataArray  type="Float64"  Name="f_20-1"  NumberOfComponents="3" format="ascii">-3.5112304280273697e-02 -1.3200204255205270e-01 0.0000000000000000e+00  -2.4884235173532589e-02 -1.3470313949136301e-01 0.0000000000000000e+00  0.0000000000000000e+00 0.0000000000000000e+00 0.0000000000000000e+00  0.0000000000000000e+00 0.0000000000000000e+00 0.0000000000000000e+00  -2.9998233750304647e-02 -1.3335254694326049e-01 0.0000000000000000e+00  0.0000000000000000e+00 0.0000000000000000e+00 0.0000000000000000e+00  0.0000000000000000e+00 0.0000000000000000e+00 0.0000000000000000e+00  0.0000000000000000e+00 0.0000000000000000e+00 0.0000000000000000e+00  0.0000000000000000e+00 0.0000000000000000e+00 0.0000000000000000e+00  1.7110560693169165e-04 -1.4986065554040918e-04 0.0000000000000000e+00  3.5961347951384833e-04 -3.1719753644768702e-04 0.0000000000000000e+00  5.4513298854286739e-04 -5.3205697833378415e-04 0.0000000000000000e+00  7.1544881076822094e-04 -8.9089950076515927e-04 0.0000000000000000e+00  8.7163391942821826e-04 -1.3289227990359821e-03 0.0000000000000000e+00  1.0268284311449412e-03 -1.8782785098347280e-03 0.0000000000000000e+00  1.1581471508808005e-03 -2.4860625553123051e-03 0.0000000000000000e+00  1.2623637756437117e-03 -3.1946789851302862e-03 0.0000000000000000e+00  1.3580325529159974e-03 -3.9842509526905861e-03 0.0000000000000000e+00  1.4315675907674869e-03 -4.8537128039968670e-03 0.0000000000000000e+00  1.4968038867075378e-03 -5.8320209802592907e-03 0.0000000000000000e+00  1.5577173510529787e-03 -6.8286459656902972e-03 0.0000000000000000e+00  1.5726681945469601e-03 -7.9433158831155280e-03 0.0000000000000000e+00  1.5991362723600728e-03 -9.1266707510281719e-03 0.0000000000000000e+00  1.5795075769659199e-03 -1.0365407497523488e-02 0.0000000000000000e+00  1.5456291232626483e-03 -1.1692507199395002e-02 0.0000000000000000e+00  1.4905513575762929e-03 -1.3068861274354400e-02 0.0000000000000000e+00  1.4071435707967710e-03 -1.4529028645690927e-02 0.0000000000000000e+00  1.3009059966779491e-03 -1.6022893478939277e-02 0.0000000000000000e+00  1.1724880244756346e-03 -1.7588604839558954e-02 0.0000000000000000e+00  1.0203085505765251e-03 -1.9203058065820983e-02 0.0000000000000000e+00  8.4295117323158217e-04 -2.0865285977063459e-02 0.0000000000000000e+00  6.4828714308224613e-04 -2.2609456524562407e-02 0.0000000000000000e+00  4.4937272716514024e-04 -2.4365855894218372e-02 0.0000000000000000e+00  2.1304504520695155e-04 -2.6191692194108610e-02 0.0000000000000000e+00  -4.2930109374840257e-05 -2.8046029325624489e-02 0.0000000000000000e+00  -3.2052589468121843e-04 -2.9953501468099011e-02 0.0000000000000000e+00  -6.1883324346727786e-04 -3.1898456951956949e-02 0.0000000000000000e+00  -9.4007381089182042e-04 -3.3878244425293733e-02 0.0000000000000000e+00  -1.2789450535612000e-03 -3.5919020457708437e-02 0.0000000000000000e+00  -1.6210038623814932e-03 -3.7965649683617889e-02 0.0000000000000000e+00  -2.0004535309141678e-03 -4.0060596443142429e-02 0.0000000000000000e+00  -2.3949387816743274e-03 -4.2197412921436195e-02 0.0000000000000000e+00  -2.7946470682951360e-03 -4.4343647355077807e-02 0.0000000000000000e+00  -3.2266547791824909e-03 -4.6532708402726330e-02 0.0000000000000000e+00  -3.6610026527927634e-03 -4.8746586960673591e-02 0.0000000000000000e+00  -4.1213005551425305e-03 -5.0984054050502541e-02 0.0000000000000000e+00  -4.5889564691493183e-03 -5.3253932232062366e-02 0.0000000000000000e+00  -5.0762212923223041e-03 -5.5538560252385731e-02 0.0000000000000000e+00  -5.5792339222022662e-03 -5.7849098427814293e-02 0.0000000000000000e+00  -6.0908455810040852e-03 -6.0178572419232704e-02 0.0000000000000000e+00  -6.6143891010667028e-03 -6.2529169097236603e-02 0.0000000000000000e+00  -7.1544703903484129e-03 -6.4896790596828235e-02 0.0000000000000000e+00  -7.7016414133256796e-03 -6.7280585108609653e-02 0.0000000000000000e+00  -8.2597617898652314e-03 -6.9682240305819779e-02 0.0000000000000000e+00  -8.8317580835313783e-03 -7.2097762024855683e-02 0.0000000000000000e+00  -9.4106542105651392e-03 -7.4526031057496112e-02 0.0000000000000000e+00  -9.9987163322565291e-03 -7.6968658271038687e-02 0.0000000000000000e+00  -1.0597546835875061e-02 -7.9421317362942362e-02 0.0000000000000000e+00  -1.1202125193235121e-02 -8.1883850052698062e-02 0.0000000000000000e+00  -1.1814032468158714e-02 -8.4357281040946974e-02 0.0000000000000000e+00  -1.2434484053131202e-02 -8.6838297589313163e-02 0.0000000000000000e+00  -1.3059504437351446e-02 -8.9326530549316552e-02 0.0000000000000000e+00  -1.3690347770275198e-02 -9.1822719504817379e-02 0.0000000000000000e+00  -1.4327681915308269e-02 -9.4324161651253124e-02 0.0000000000000000e+00  -1.4968285378279645e-02 -9.6830915253146868e-02 0.0000000000000000e+00  -1.5613289962097085e-02 -9.9342900338511564e-02 0.0000000000000000e+00  -1.6262597131287304e-02 -1.0185854214474981e-01 0.0000000000000000e+00  -1.6915433568564096e-02 -1.0437675341877375e-01 0.0000000000000000e+00  -1.7571860284570716e-02 -1.0689818996082107e-01 0.0000000000000000e+00  -1.8230631780871701e-02 -1.0942248081561083e-01 0.0000000000000000e+00  -1.8890163646483278e-02 -1.1194703643970436e-01 0.0000000000000000e+00  -1.9552774602431006e-02 -1.1447398411347555e-01 0.0000000000000000e+00  -2.0216106764525184e-02 -1.1700196461618559e-01 0.0000000000000000e+00  -2.0881088444282988e-02 -1.1953026274704112e-01 0.0000000000000000e+00  -2.1547293393518005e-02 -1.2205930225562794e-01 0.0000000000000000e+00  -2.2213903881551256e-02 -1.2458821228073497e-01 0.0000000000000000e+00  -2.2881229857513150e-02 -1.2711717797907995e-01 0.0000000000000000e+00  -2.3548859132383086e-02 -1.2964611351062363e-01 0.0000000000000000e+00  -2.4216500731314202e-02 -1.3217467546977399e-01 0.0000000000000000e+00  -3.4444540884005941e-02 -1.2947368197176037e-01 0.0000000000000000e+00  -3.3776573750866748e-02 -1.2694525758749556e-01 0.0000000000000000e+00  -3.3108362914187721e-02 -1.2441671301754970e-01 0.0000000000000000e+00  -3.2439821453475515e-02 -1.2188836236470196e-01 0.0000000000000000e+00  -3.1771071734383600e-02 -1.1936051811424889e-01 0.0000000000000000e+00  -3.1101954542608994e-02 -1.1683304070444962e-01 0.0000000000000000e+00  -3.0432682758586689e-02 -1.1430696026962110e-01 0.0000000000000000e+00  -2.9762862381956488e-02 -1.1178247337736413e-01 0.0000000000000000e+00  -2.9093351240163635e-02 -1.0925915159938235e-01 0.0000000000000000e+00  -2.8423908293121643e-02 -1.0673896390454209e-01 0.0000000000000000e+00  -2.7754333144854697e-02 -1.0422065734380213e-01 0.0000000000000000e+00  -2.7086138311687394e-02 -1.0170613258362826e-01 0.0000000000000000e+00  -2.6418395846616149e-02 -9.9196984332274654e-02 0.0000000000000000e+00  -2.5749850165267825e-02 -9.6689503144155475e-02 0.0000000000000000e+00  -2.5084278366865498e-02 -9.4188670354720574e-02 0.0000000000000000e+00  -2.4419784981070884e-02 -9.1696430002060847e-02 0.0000000000000000e+00  -2.3754623490489738e-02 -8.9206753704858741e-02 0.0000000000000000e+00  -2.3094710749541864e-02 -8.6726699238271365e-02 0.0000000000000000e+00  -2.2436478036319072e-02 -8.4258383899706232e-02 0.0000000000000000e+00  -2.1777568698162410e-02 -8.1793540678541304e-02 0.0000000000000000e+00  -2.1126308739009197e-02 -7.9341819607529757e-02 0.0000000000000000e+00  -2.0477574414689483e-02 -7.6905605358188647e-02 0.0000000000000000e+00  -1.9828187765635118e-02 -7.4473862311886574e-02 0.0000000000000000e+00  -1.9189177541141168e-02 -7.2059114517468673e-02 0.0000000000000000e+00  -1.8553636449353126e-02 -6.9664449211797513e-02 0.0000000000000000e+00  -1.7918617610291548e-02 -6.7277289247783451e-02 0.0000000000000000e+00  -1.7293181034064013e-02 -6.4908980947054440e-02 0.0000000000000000e+00  -1.6673937239628598e-02 -6.2566423266543505e-02 0.0000000000000000e+00  -1.6055679998280618e-02 -6.0228838500360433e-02 0.0000000000000000e+00  -1.5454659353249623e-02 -5.7916526898618308e-02 0.0000000000000000e+00  -1.4857476706986516e-02 -5.5638057414483737e-02 0.0000000000000000e+00  -1.4260232879994226e-02 -5.3367660888383683e-02 0.0000000000000000e+00  -1.3679223687828724e-02 -5.1130055353696420e-02 0.0000000000000000e+00  -1.3106888397694163e-02 -4.8908920637385486e-02 0.0000000000000000e+00  -1.2543893825861980e-02 -4.6716962546317922e-02 0.0000000000000000e+00  -1.1996569618411277e-02 -4.4560033113963567e-02 0.0000000000000000e+00  -1.1448007192859011e-02 -4.2425046921912388e-02 0.0000000000000000e+00  -1.0917439764681793e-02 -4.0325017693327220e-02 0.0000000000000000e+00  -1.0391785202598629e-02 -3.8257356934082519e-02 0.0000000000000000e+00  -9.8756534070518400e-03 -3.6226955654416609e-02 0.0000000000000000e+00  -9.3750645614707351e-03 -3.4234684760698617e-02 0.0000000000000000e+00  -8.8923868960336921e-03 -3.2269263547641709e-02 0.0000000000000000e+00  -8.4254107420068565e-03 -3.0347512696365403e-02 0.0000000000000000e+00  -7.9494503976722756e-03 -2.8463200745774742e-02 0.0000000000000000e+00  -7.5058598341943656e-03 -2.6623961399185523e-02 0.0000000000000000e+00  -7.0599713656221670e-03 -2.4839599340486178e-02 0.0000000000000000e+00  -6.6403524485201641e-03 -2.3087727981617498e-02 0.0000000000000000e+00  -6.2312800053892147e-03 -2.1396720678059228e-02 0.0000000000000000e+00  -5.8416579644575192e-03 -1.9739522703512202e-02 0.0000000000000000e+00  -5.4699187222351977e-03 -1.8140500473713919e-02 0.0000000000000000e+00  -5.0839001604559069e-03 -1.6587989724586770e-02 0.0000000000000000e+00  -4.7358698391022193e-03 -1.5092303515561059e-02 0.0000000000000000e+00  -4.3790629606098672e-03 -1.3667952367501967e-02 0.0000000000000000e+00  -4.0615530126879322e-03 -1.2289330721308001e-02 0.0000000000000000e+00  -3.7533767324025385e-03 -1.0999654564613149e-02 0.0000000000000000e+00  -3.4415838565769828e-03 -9.7302474955332403e-03 0.0000000000000000e+00  -3.1605060077165895e-03 -8.5543665100484088e-03 0.0000000000000000e+00  -2.8580870792793609e-03 -7.4456280840796280e-03 0.0000000000000000e+00  -2.5974969672133185e-03 -6.3968702343837345e-03 0.0000000000000000e+00  -2.3426065094403680e-03 -5.4429633009303834e-03 0.0000000000000000e+00  -2.1035539654916985e-03 -4.5400015807918305e-03 0.0000000000000000e+00  -1.8787783761740945e-03 -3.7277879248944052e-03 0.0000000000000000e+00  -1.6320476202755048e-03 -2.9791141856873246e-03 0.0000000000000000e+00  -1.4278281216488940e-03 -2.3120606379970557e-03 0.0000000000000000e+00  -1.1966900424508402e-03 -1.7301810523690380e-03 0.0000000000000000e+00  -9.9840169473297655e-04 -1.2465825248591370e-03 0.0000000000000000e+00  -7.7694766867758590e-04 -8.4859499888608478e-04 0.0000000000000000e+00  -5.7803734036425490e-04 -5.1299376692322306e-04 0.0000000000000000e+00  -3.8428302175567904e-04 -2.7901317566878962e-04 0.0000000000000000e+00  -1.9046666843903234e-04 -1.6056693959395910e-04 0.0000000000000000e+00  -3.2555220108761919e-02 -1.3267732286239237e-01 0.0000000000000000e+00  -2.7441292718297792e-02 -1.3402780532620115e-01 0.0000000000000000e+00  1.5466210712333711e-05 -1.5248222381822367e-04 0.0000000000000000e+00  -2.2329957207197954e-02 -1.0429569381363542e-01 0.0000000000000000e+00  -2.5722755802020575e-02 -1.1710401807360836e-01 0.0000000000000000e+00  4.4076176142781263e-06 -1.5449246131209887e-03 0.0000000000000000e+00  -1.8491282457054836e-02 -8.9431331332820316e-02 0.0000000000000000e+00  -2.0448070502805140e-02 -9.6928117288703042e-02 0.0000000000000000e+00  -3.6184929880773314e-04 -3.8992988142624039e-03 0.0000000000000000e+00  -2.7905240677972183e-02 -1.2448213930257628e-01 0.0000000000000000e+00  -5.5003147306477180e-04 -6.9628815993849277e-03 0.0000000000000000e+00  -1.1952059918019814e-03 -1.3756742509484455e-02 0.0000000000000000e+00  -1.6568124354337275e-02 -8.1999278199886935e-02 0.0000000000000000e+00  -2.3300628767367782e-03 -1.9417206091661903e-02 0.0000000000000000e+00  -1.4690730053600623e-02 -7.4655532808738545e-02 0.0000000000000000e+00  -3.2728634650046962e-03 -2.4768232526111319e-02 0.0000000000000000e+00  -4.6905552383218309e-03 -3.2047410894056869e-02 0.0000000000000000e+00  -1.3000903042443709e-02 -6.7204957578655258e-02 0.0000000000000000e+00  -1.1040491767205165e-02 -6.0186797120412389e-02 0.0000000000000000e+00  -5.8755202704805828e-03 -3.7931785226392616e-02 0.0000000000000000e+00  -7.3423135115935597e-03 -4.4419594844615495e-02 0.0000000000000000e+00  -9.3242472533714184e-03 -5.2994436965010515e-02 0.0000000000000000e+00  -8.0877793646060914e-04 -9.2307226686287568e-03 0.0000000000000000e+00  -2.4385318273720216e-02 -1.1208006860645744e-01 0.0000000000000000e+00  -8.2635713623619173e-03 -4.8171565072579650e-02 0.0000000000000000e+00  -1.8377872183629460e-03 -1.6673277305315537e-02 0.0000000000000000e+00  -3.9757047991684754e-03 -2.8741577784867051e-02 0.0000000000000000e+00  -1.4982068147019256e-04 -2.6439774835776753e-03 0.0000000000000000e+00  -2.9696548645520196e-02 -1.2857506986185616e-01 0.0000000000000000e+00  8.5394116562644386e-05 -6.8376507646729031e-04 0.0000000000000000e+00  -1.0830700129211716e-02 -6.3967667941503617e-02 0.0000000000000000e+00  -1.4418243934392606e-02 -7.8430271113155689e-02 0.0000000000000000e+00  -1.6304357249112285e-02 -8.5826237042059147e-02 0.0000000000000000e+00  -6.2153316572660187e-03 -3.4835513159376642e-02 0.0000000000000000e+00  -1.2588590980929600e-02 -7.1134131186356475e-02 0.0000000000000000e+00  -1.8234120321850119e-02 -9.3297034138039386e-02 0.0000000000000000e+00  -9.1607241596293083e-03 -5.6961263932506008e-02 0.0000000000000000e+00  -2.0195755854118667e-02 -1.0082108030147477e-01 0.0000000000000000e+00  -7.5900890270137779e-03 -4.1009674824336366e-02 0.0000000000000000e+00  -3.5412196606878434e-03 -2.1795980534444249e-02 0.0000000000000000e+00  -8.2662673720872105e-04 -5.4894663532040096e-03 0.0000000000000000e+00  -2.7808766752462698e-02 -1.2040541453333709e-01 0.0000000000000000e+00  -2.4774768168986699e-02 -1.0764002698037115e-01 0.0000000000000000e+00  -3.2807544262446995e-04 -1.1380529475634660e-02 0.0000000000000000e+00  -2.1081505268410478e-02 -1.0749847940101849e-01 0.0000000000000000e+00  -2.1966192100555701e-03 -1.1702325366920884e-02 0.0000000000000000e+00  -2.3598553325152746e-02 -1.0112020741571755e-01 0.0000000000000000e+00  -2.1614186275872017e-02 -9.3599950701154552e-02 0.0000000000000000e+00  -1.9652237804620221e-02 -8.6134287199071569e-02 0.0000000000000000e+00  -2.4974032863184194e-02 -1.2235222171504331e-01 0.0000000000000000e+00  3.7004710630708627e-04 -5.1881030267653481e-03 0.0000000000000000e+00  -1.5836769151062215e-02 -7.1457314722319379e-02 0.0000000000000000e+00  -1.7722532075089805e-02 -7.8744920560832363e-02 0.0000000000000000e+00  -3.5626467781059144e-03 -3.4461099945366176e-02 0.0000000000000000e+00  -1.3152039350346715e-03 -2.1412181717061315e-02 0.0000000000000000e+00  -1.3485432605981415e-02 -6.2214625421375506e-02 0.0000000000000000e+00  -1.2248675075454194e-02 -5.7305278055786259e-02 0.0000000000000000e+00  -4.7868121013022423e-03 -4.0644087229895300e-02 0.0000000000000000e+00  -8.5120747994179546e-05 -6.4619196759035821e-05 0.0000000000000000e+00  5.8322955038288539e-05 -4.9428633824224972e-05 0.0000000000000000e+00  -7.1994960962177643e-03 -5.1620157998769983e-02 0.0000000000000000e+00  -4.9385492038738757e-03 -2.5945876157177000e-02 0.0000000000000000e+00  -2.7638530148533084e-03 -1.4625720956165331e-02 0.0000000000000000e+00  -5.8066884865281036e-04 -1.9843558910084950e-03 0.0000000000000000e+00  -7.9749446029250717e-04 -3.3620683891194968e-03 0.0000000000000000e+00  -6.1144909798152829e-03 -4.7079094609457375e-02 0.0000000000000000e+00  -3.3064483182800408e-03 -1.7548666527095927e-02 0.0000000000000000e+00  -5.8110034443869130e-03 -2.9744881094831439e-02 0.0000000000000000e+00  -1.5973274391141996e-03 -8.2792030079864975e-03 0.0000000000000000e+00  -2.2955804410912783e-02 -1.1450671914141186e-01 0.0000000000000000e+00  -2.6928776965954658e-02 -1.1361578737896301e-01 0.0000000000000000e+00  1.8646444326209308e-04 -8.3937053813291588e-03 0.0000000000000000e+00  -3.9417350101100698e-04 -9.4148355073114570e-04 0.0000000000000000e+00  -2.5867914581594799e-02 -1.2749539878163874e-01 0.0000000000000000e+00  -1.0940668390178857e-02 -5.0690481617544990e-02 0.0000000000000000e+00  -9.6378106704039374e-03 -4.6118232815533948e-02 0.0000000000000000e+00  -1.6367367418265158e-04 -1.4911396049546532e-02 0.0000000000000000e+00  4.6244173215401137e-04 -2.0042789241456801e-03 0.0000000000000000e+00  5.2939263070107855e-04 -3.4981587994369302e-03 0.0000000000000000e+00  -1.8929563472948338e-03 -2.6574089246984883e-02 0.0000000000000000e+00  -4.0958675273482952e-04 -1.7955348168084088e-02 0.0000000000000000e+00  -2.2875802230068638e-03 -3.0353936593486220e-02 0.0000000000000000e+00  -2.4456489724189982e-04 -4.9042950279397140e-04 0.0000000000000000e+00  -2.7164890571927849e-02 -1.3099580827191695e-01 0.0000000000000000e+00  -2.3062122907750761e-02 -9.8098515231194033e-02 0.0000000000000000e+00  -2.1084509271718375e-02 -9.0598304326349882e-02 0.0000000000000000e+00  4.0675933455683810e-04 -6.3596268213792721e-03 0.0000000000000000e+00  -1.9132205334426503e-02 -8.3161140349541432e-02 0.0000000000000000e+00  -2.3948538901401570e-02 -1.1944354308345402e-01 0.0000000000000000e+00  -1.7215834564448796e-02 -7.5810213820747846e-02 0.0000000000000000e+00  -1.5354500235862096e-02 -6.8592755133152494e-02 0.0000000000000000e+00  -1.4667911351282975e-03 -2.3483236770230044e-02 0.0000000000000000e+00  -1.4411180975643752e-02 -6.4912807126585884e-02 0.0000000000000000e+00  -3.8365646372457533e-03 -3.6891802205002010e-02 0.0000000000000000e+00  -1.1814118344537850e-02 -5.4556148180011650e-02 0.0000000000000000e+00  -5.1044709248954795e-03 -4.3197295285816430e-02 0.0000000000000000e+00  -3.0378222013381587e-02 -1.2586902936840824e-01 0.0000000000000000e+00  -2.1548776505532004e-02 -1.1050915130214514e-01 0.0000000000000000e+00  -2.0843045646072927e-03 -1.0177033461518058e-02 0.0000000000000000e+00  3.7935773081797057e-04 -1.0453121689105408e-03 0.0000000000000000e+00  2.0478592602861368e-04 -3.9561217679887219e-04 0.0000000000000000e+00  -9.1504938071027952e-03 -6.1970552546432925e-02 0.0000000000000000e+00  -9.0153345947260252e-03 -4.2791288481901467e-02 0.0000000000000000e+00  -1.0854947363809505e-02 -6.9101046383782755e-02 0.0000000000000000e+00  -1.6446726184926826e-02 -9.1178318335844014e-02 0.0000000000000000e+00  -1.2687930737716924e-02 -7.6349455166054514e-02 0.0000000000000000e+00  -1.4541546644194396e-02 -8.3723525558655101e-02 0.0000000000000000e+00  -7.3276026532700447e-03 -3.6733731294329393e-02 0.0000000000000000e+00  -7.6294107976155679e-03 -5.5041387448091519e-02 0.0000000000000000e+00  -4.6314815582146791e-03 -2.3300855021617797e-02 0.0000000000000000e+00  -6.7566043675488440e-03 -3.2731284796992693e-02 0.0000000000000000e+00  -1.9611618223967550e-02 -1.0357462101635460e-01 0.0000000000000000e+00  -4.0372844955026245e-03 -2.0048965249904179e-02 0.0000000000000000e+00  -1.8720357677705187e-02 -9.8504878351491076e-02 0.0000000000000000e+00  -1.4131079024294422e-03 -6.3769896980207068e-03 0.0000000000000000e+00  -1.1398107386738721e-03 -4.5725674267410527e-03 0.0000000000000000e+00  -2.9529966345533246e-02 -1.2235354853433085e-01 0.0000000000000000e+00  -2.8391118320490599e-02 -1.1763792384548750e-01 0.0000000000000000e+00  -1.6314210917560131e-02 -8.8598008852768140e-02 0.0000000000000000e+00  -1.4418587774197899e-02 -8.1169527916289008e-02 0.0000000000000000e+00  -1.0659174129594896e-02 -6.6555227261065275e-02 0.0000000000000000e+00  -1.8112012408006795e-02 -9.6048061307891897e-02 0.0000000000000000e+00  -1.2577213555723074e-02 -7.3830756814822082e-02 0.0000000000000000e+00  -8.9375986961345421e-03 -5.9497875317005414e-02 0.0000000000000000e+00  -7.7597590932240159e-03 -3.8742267133255431e-02 0.0000000000000000e+00  2.5700987157209487e-04 -1.0214754237583085e-02 0.0000000000000000e+00  -2.6342350040334046e-02 -1.0979730747852903e-01 0.0000000000000000e+00  -2.5001648485537598e-02 -1.0502702231906408e-01 0.000000000000000