<?xml version="1.0"?>
<VTKFile type="UnstructuredGrid"  version="0.1"  >
<UnstructuredGrid>
<Piece  NumberOfPoints="439" NumberOfCells="725">
<Points>
<DataArray  type="Float64"  NumberOfComponents="3"  format="ascii">0.5981272047328023 0.1617168333548698 0  0.6002882906599573 0.181646040815715 0  0.2489897949 0.21 0  0.2489897949 0.19 0  0.5992077798602111 0.1716814468719376 0  0.2496355385699469 0.2060260530378829 0  0.249959460510575 0.2020130349814059 0  0.2499594605105767 0.1979869650186357 0  0.24963553856995 0.1939739469621422 0  0.2539745355895319 0.2099642072437526 0  0.258962755263051 0.2099262609785662 0  0.2639503987745523 0.2098783211807247 0  0.2689355894132673 0.2097989716774714 0  0.2739183378879071 0.2097030152003625 0  0.2789024138457037 0.209583339785575 0  0.2838821616970868 0.2094516832562804 0  0.2888580133927375 0.2092984351467946 0  0.2938339098437472 0.2091285767405744 0  0.2988071705940587 0.2089420641063624 0  0.3037819526788654 0.2087335071258219 0  0.3087562485049642 0.2085216502460103 0  0.3137250915818458 0.20828477910393 0  0.3186988249716991 0.2080351684705816 0  0.3236652850414241 0.2077732622582533 0  0.3286326279369114 0.2074938963529563 0  0.3335978712261313 0.2072044394852056 0  0.3385614130139069 0.2068978260835475 0  0.343522104645063 0.2065841810586929 0  0.3484820834100593 0.2062559938853777 0  0.3534400029271809 0.2059177314386425 0  0.3583957118547203 0.2055694753106022 0  0.3633527137238567 0.2052052504411544 0  0.3683095708488343 0.2048387850957374 0  0.3732634775831348 0.204457577811385 0  0.3782154646330559 0.2040702692547571 0  0.3831667126259971 0.2036720836484379 0  0.3881165021580222 0.2032660070926121 0  0.3930643505250629 0.2028523405824736 0  0.3980130053770765 0.2024266677020011 0  0.4029614600553509 0.2019998786433982 0  0.4079064248042015 0.2015620421591927 0  0.4128515932044391 0.2011158273680833 0  0.4177964811935761 0.2006676689097439 0  0.4227386277127186 0.2002097128276435 0  0.4276821466502236 0.1997472827718802 0  0.4326227634255874 0.1992788743612505 0  0.4375644727927373 0.1988042645657148 0  0.4425037980619227 0.1983256705374122 0  0.4474422821752289 0.197841390658117 0  0.4523806841612131 0.1973531929081876 0  0.4573185989427282 0.1968604254049683 0  0.4622549054514805 0.1963634503623921 0  0.4671912174641899 0.1958631478797318 0  0.4721269939960365 0.1953589097697717 0  0.4770614169354298 0.1948512053974906 0  0.4819956272427826 0.1943407836377491 0  0.486929359112618 0.1938271742621042 0  0.4918619964064483 0.1933110048675036 0  0.4967944028197527 0.1927927095822998 0  0.5017263858552005 0.1922719766830381 0  0.5066574769755848 0.1917492844353815 0  0.5115883335155099 0.1912250229507765 0  0.5165187973806896 0.1906989576334437 0  0.5214485441277248 0.1901715012126003 0  0.5263781294172164 0.1896429099131331 0  0.5313073520877192 0.1891130992870247 0  0.5362361055100441 0.1885823536861228 0  0.5411644437916545 0.1880509099635056 0  0.5460924004673816 0.1875186649307651 0  0.5510201539403966 0.186985777953581 0  0.5559477880383682 0.1864527940828156 0  0.5608750588641157 0.1859191879850089 0  0.5658022624255099 0.1853853683911836 0  0.5707292001496338 0.1848513768963374 0  0.5756559526614459 0.1843171830352505 0  0.5805826177282781 0.1837829806725208 0  0.5855091359040188 0.183248725529833 0  0.5904355662404314 0.1827144517141977 0  0.5953619552048189 0.1821802436276689 0  0.5932008894970419 0.1622510895630467 0  0.5882745646735832 0.1627853735352497 0  0.58334825843713 0.1633196922563479 0  0.5784219855319805 0.1638540137097828 0  0.5734957535635763 0.1643882747177471 0  0.5685695864702731 0.1649225006899247 0  0.5636435145503063 0.1654565203140571 0  0.558717632048495 0.1659903264438626 0  0.5537917643098147 0.1665239219544405 0  0.5488660957626709 0.1670570080895925 0  0.543940576710918 0.1675897967869144 0  0.5390150922274038 0.168121861630599 0  0.5340899252771988 0.1686530070065861 0  0.5291650148582374 0.1691839419871176 0  0.5242401013993606 0.1697135429523619 0  0.5193156601037119 0.1702416227840172 0  0.5143915275479332 0.1707693259587223 0  0.5094672463208738 0.1712949983822335 0  0.5045435904209975 0.1718185504155494 0  0.4996203198913719 0.1723415649206258 0  0.4946967675759055 0.17286174096901 0  0.4897739946734653 0.1733790609874905 0  0.4848516830050569 0.1738956595151709 0  0.4799289165920919 0.1744085136962667 0  0.4750071167482955 0.1749176203516992 0  0.4700858109326413 0.1754253752119727 0  0.4651643088921279 0.1759290973896564 0  0.4602437161054475 0.1764278448290022 0  0.4553233263096779 0.1769256239740246 0  0.4504018693291613 0.1774176491506397 0  0.4454822859171493 0.17790343744897 0  0.4405633142391162 0.1783877777978156 0  0.4356439396473792 0.1788651060559981 0  0.4307242494158551 0.1793388420547841 0  0.425805036141376 0.1798067055674974 0  0.4208855771182795 0.1802672235422693 0  0.4159678701752865 0.1807238623866605 0  0.4110494441945091 0.1811729728275298 0  0.4061323572551377 0.181615910314444 0  0.4012160894750767 0.1820514761963847 0  0.3962996044124231 0.1824791044955351 0  0.391381710608467 0.1829006272987034 0  0.3864638244783651 0.183313193090723 0  0.3815498463521103 0.18371944490064 0  0.376632887949047 0.1841154245429441 0  0.3717196268574518 0.1845014564804653 0  0.366803587162112 0.1848798265969546 0  0.3618891229397963 0.1852462847535629 0  0.3569730820739866 0.1856052342173479 0  0.3520569767239166 0.1859522635790714 0  0.3471459192400935 0.1862911685409563 0  0.3422308761062882 0.1866172489167004 0  0.3373210341851384 0.1869301142283199 0  0.3324061474589179 0.1872321032770152 0  0.3274936408402977 0.187516321383896 0  0.3225828002577015 0.1877964471120332 0  0.3176702177322008 0.1880568152461859 0  0.3127644633153366 0.188304401772014 0  0.307853050837479 0.1885381709238537 0  0.3029440706959206 0.1887523276794053 0  0.2980338533289125 0.1889551812402578 0  0.2931237486072287 0.1891386868101676 0  0.28822000884278 0.1893091830727902 0  0.283310044556017 0.1894610104499317 0  0.2784078179501216 0.189595093316456 0  0.2735010370991532 0.1897069047875568 0  0.2686010313429593 0.1898000672045679 0  0.2636974212916144 0.1898786035233112 0  0.2587940920993091 0.1899339940278477 0  0.253891981801175 0.1899630551537559 0  0.5986675167459896 0.1666991389846097 0  0.5997480340499446 0.1766637461555141 0  0.2589794435679018 0.2005150904732067 0  0.5425531201881222 0.1778212434809315 0  0.5675562297332211 0.1750843545067054 0  0.2774694833856673 0.2004409687244552 0  0.5133461457209845 0.1808630777196646 0  0.5281272196780782 0.1792783969463673 0  0.294482470364505 0.1984128685236643 0  0.5819972921654525 0.1730872416911105 0  0.310400766869861 0.1984232438317502 0  0.3370129035698594 0.1978212832223333 0  0.4985642831605076 0.1824342224905583 0  0.3552185567330365 0.1957759271078341 0  0.4837814069372251 0.1839867221984455 0  0.3706478412250867 0.1946516111961888 0  0.389758442138569 0.1930940599650965 0  0.4685922494482552 0.1851931494650551 0  0.4538564313885546 0.1871448722793221 0  0.4041980305947162 0.1919478559394986 0  0.4193481509943998 0.1904769381340476 0  0.4384447379908952 0.1886502719730622 0  0.3202290690715948 0.1979696691778773 0  0.557758403620059 0.1761671290121321 0  0.4278269863301107 0.1895302773916227 0  0.346724624003638 0.1965135258619595 0  0.3812727936107278 0.1939472708825269 0  0.2860672382348995 0.1994426220983199 0  0.5901719088753267 0.170891936616823 0  0.2680160656037625 0.201516433939682 0  0.4614757426350407 0.188644277311101 0  0.4910529678889375 0.1855911283653576 0  0.5058383916661541 0.1840290435817598 0  0.3969641426296912 0.1902192054719167 0  0.4762655552318613 0.1871316946996318 0  0.5206220942336502 0.182450855752172 0  0.4466828585459303 0.1901222754199103 0  0.5354043839303646 0.1808612708698159 0  0.411749327046671 0.188909470486811 0  0.3624567534702733 0.1929944349414901 0  0.3032711363838158 0.1965167684134028 0  0.5743328936008072 0.1721105546563717 0  0.5495322775880911 0.1741718256487177 0  0.3283280105239429 0.2003862515494813 0  0.5482199352498065 0.1810798166391754 0  0.3299830429840267 0.1935620270720285 0  0.5369301571104633 0.1745222413306135 0  0.5221519994907611 0.1761130035523213 0  0.5073741723525966 0.1776928904843412 0  0.5771772514977256 0.1779772181220503 0  0.3013339042248515 0.2027275498198127 0  0.477819666669875 0.1808008602469723 0  0.4925967335808981 0.1792573210853979 0  0.3953012508945536 0.1965159175267837 0  0.3607156353620704 0.199266984346523 0  0.458677040033785 0.1827589836824804 0  0.4482664687150749 0.1838002055085622 0  0.4101139309043831 0.1952147353678253 0  0.2557686951395789 0.1960695852163908 0  0.2550292289379894 0.2034297439369206 0  0.4349183703016356 0.1928011697622507 0  0.3742432280162481 0.1905664445449769 0  0.3403329900220144 0.1928148170903363 0  0.2811949133358493 0.1955897595726444 0  0.2911365524131148 0.1953158271798763 0  0.4248220133087667 0.1939399521468987 0  0.3498397914828509 0.1921851284413287 0  0.3843278560879864 0.1895745283363141 0  0.3164246728363351 0.194307943578661 0  0.5619038897098879 0.1795392244705316 0  0.5613579456098282 0.1718302423476283 0  0.3164156614562439 0.2020284428263009 0  0.2710115923253912 0.1957495672307992 0  0.5870643172331758 0.1777597651753206 0  0.4339904206926777 0.1845298756223328 0  0.423729923217662 0.1859187746896467 0  0.340516919467769 0.2015705098339192 0  0.2809936889442139 0.2043236567441014 0  0.2915678593621778 0.2040032031594904 0  0.3750265822815543 0.1988452318337481 0  0.350216185891969 0.2013104839259047 0  0.3848313263011754 0.198698640722717 0  0.2647656148568586 0.1960931982374937 0  0.5939892962680784 0.176321941002765 0  0.5310755336462228 0.1746687983966098 0  0.5162977362768493 0.1762557006892799 0  0.3071747362546905 0.2029473675540343 0  0.5015204555974964 0.1778300244255801 0  0.5714372584406091 0.1790754912870624 0  0.4867437172586872 0.1793868447861526 0  0.4720105866064477 0.180911789079491 0  0.3665727890760728 0.1993270140493948 0  0
[...]
<PointData  Vectors="f_20-1"> 
<DataArray  type="Float64"  Name="f_20-1"  NumberOfComponents="3" format="ascii">-1.8727952671976681e-03 -2.8283166645130114e-02 0.0000000000000000e+00  2.8829065995738889e-04 -2.8353959184285037e-02 0.0000000000000000e+00  0.0000000000000000e+00 0.0000000000000000e+00 0.0000000000000000e+00  0.0000000000000000e+00 0.0000000000000000e+00 0.0000000000000000e+00  -7.9222013978876092e-04 -2.8318553128062425e-02 0.0000000000000000e+00  0.0000000000000000e+00 0.0000000000000000e+00 0.0000000000000000e+00  0.0000000000000000e+00 0.0000000000000000e+00 0.0000000000000000e+00  0.0000000000000000e+00 0.0000000000000000e+00 0.0000000000000000e+00  0.0000000000000000e+00 0.0000000000000000e+00 0.0000000000000000e+00  4.0934983902641149e-05 -3.5792756247351375e-05 0.0000000000000000e+00  8.5348951796750122e-05 -7.3739021433796571e-05 0.0000000000000000e+00  1.2918675766016656e-04 -1.2167881927527912e-04 0.0000000000000000e+00  1.7057169073738556e-04 -2.0102832252856420e-04 0.0000000000000000e+00  2.0951445975029242e-04 -2.9698479963743670e-04 0.0000000000000000e+00  2.4978471192845609e-04 -4.1666021442496120e-04 0.0000000000000000e+00  2.8572685769304699e-04 -5.4831674371959174e-04 0.0000000000000000e+00  3.1777284772095872e-04 -7.0156485320536910e-04 0.0000000000000000e+00  3.4986359309504227e-04 -8.7142325942560781e-04 0.0000000000000000e+00  3.7931863778797159e-04 -1.0579358936375855e-03 0.0000000000000000e+00  4.1029501696558283e-04 -1.2664928741780938e-03 0.0000000000000000e+00  4.4078513744614920e-04 -1.4783497539897193e-03 0.0000000000000000e+00  4.6582250870927752e-04 -1.7152208960699820e-03 0.0000000000000000e+00  4.9575019294416465e-04 -1.9648315294184134e-03 0.0000000000000000e+00  5.1840455705088348e-04 -2.2267377417466779e-03 0.0000000000000000e+00  5.4194174691976128e-04 -2.5061036470436899e-03 0.0000000000000000e+00  5.6337933051059646e-04 -2.7955605147944318e-03 0.0000000000000000e+00  5.8311541267850426e-04 -3.1021739164524939e-03 0.0000000000000000e+00  6.0000133820543899e-04 -3.4158189413070975e-03 0.0000000000000000e+00  6.1617439758334660e-04 -3.7440061146222468e-03 0.0000000000000000e+00  6.3028820908639274e-04 -4.0822685613574839e-03 0.0000000000000000e+00  6.4219143100755134e-04 -4.4305246893977680e-03 0.0000000000000000e+00  6.5538759452559358e-04 -4.7947495588455836e-03 0.0000000000000000e+00  6.6843901388470204e-04 -5.1612149042625614e-03 0.0000000000000000e+00  6.7854004255601594e-04 -5.5424221886150029e-03 0.0000000000000000e+00  6.8672138686825287e-04 -5.9297307452428841e-03 0.0000000000000000e+00  6.9416367418506609e-04 -6.3279163515620870e-03 0.0000000000000000e+00  7.0014750058840984e-04 -6.7339929073878960e-03 0.0000000000000000e+00  7.0419016199979145e-04 -7.1476594175263657e-03 0.0000000000000000e+00  7.0903930840579348e-04 -7.5733322979988655e-03 0.0000000000000000e+00  7.1368828105229458e-04 -8.0001213566017939e-03 0.0000000000000000e+00  7.1484732429075875e-04 -8.4379578408072895e-03 0.0000000000000000e+00  7.1621001890807801e-04 -8.8841726319166432e-03 0.0000000000000000e+00  7.1729230242433765e-04 -9.3323310902560727e-03 0.0000000000000000e+00  7.1563311595502100e-04 -9.7902871723565040e-03 0.0000000000000000e+00  7.1534634783183848e-04 -1.0252717228119769e-02 0.0000000000000000e+00  7.1215741756209161e-04 -1.0721125638749494e-02 0.0000000000000000e+00  7.1006107906001863e-04 -1.1195735434285165e-02 0.0000000000000000e+00  7.0558064258983771e-04 -1.1674329462587760e-02 0.0000000000000000e+00  7.0025905023225917e-04 -1.2158609341883042e-02 0.0000000000000000e+00  6.9485533056858528e-04 -1.2646807091812378e-02 0.0000000000000000e+00  6.8896440644175831e-04 -1.3139574595031662e-02 0.0000000000000000e+00  6.8146520956450520e-04 -1.3636549637607890e-02 0.0000000000000000e+00  6.7397151662341168e-04 -1.4136852120268207e-02 0.0000000000000000e+00  6.6594234283686967e-04 -1.4641090230228295e-02 0.0000000000000000e+00  6.5655957656303150e-04 -1.5148794602509412e-02 0.0000000000000000e+00  6.4696417826919008e-04 -1.5659216362250886e-02 0.0000000000000000e+00  6.3689034244192181e-04 -1.6172825737895771e-02 0.0000000000000000e+00  6.2572193064162950e-04 -1.6688995132496384e-02 0.0000000000000000e+00  6.1432263829165157e-04 -1.7207290417700184e-02 0.0000000000000000e+00  6.0249996811066492e-04 -1.7728023316961966e-02 0.0000000000000000e+00  5.8978538283550722e-04 -1.8250715564618478e-02 0.0000000000000000e+00  5.7683621712264403e-04 -1.8774977049223426e-02 0.0000000000000000e+00  5.6349437668609074e-04 -1.9301042366556300e-02 0.0000000000000000e+00  5.4943541808335280e-04 -1.9828498787399729e-02 0.0000000000000000e+00  5.3521500191630860e-04 -2.0357090086866956e-02 0.0000000000000000e+00  5.2063196678011768e-04 -2.0886900712975314e-02 0.0000000000000000e+00  5.0557968344543580e-04 -2.1417646313877235e-02 0.0000000000000000e+00  4.9011225941778555e-04 -2.1949090036494423e-02 0.0000000000000000e+00  4.7426322952892294e-04 -2.2481335069234838e-02 0.0000000000000000e+00  4.5821099690575014e-04 -2.3014222046418967e-02 0.0000000000000000e+00  4.4203938922259857e-04 -2.3547205917184337e-02 0.0000000000000000e+00  4.2550450932735552e-04 -2.4080812014991144e-02 0.0000000000000000e+00  4.0890236506186729e-04 -2.4614631608816429e-02 0.0000000000000000e+00  3.9203438352212669e-04 -2.5148623103662605e-02 0.0000000000000000e+00  3.7498118969990848e-04 -2.5682816964749489e-02 0.0000000000000000e+00  3.5784055089469797e-04 -2.6217019327479215e-02 0.0000000000000000e+00  3.4055302098479138e-04 -2.6751274470167005e-02 0.0000000000000000e+00  3.2317765175043250e-04 -2.7285548285802323e-02 0.0000000000000000e+00  3.0576091047840629e-04 -2.7819756372331084e-02 0.0000000000000000e+00  -1.8553047973414877e-03 -2.7748910436953270e-02 0.0000000000000000e+00  -1.8378239151749017e-03 -2.7214626464750268e-02 0.0000000000000000e+00  -1.8203244459893478e-03 -2.6680307743652074e-02 0.0000000000000000e+00  -1.8027916454921406e-03 -2.6145986290217187e-02 0.0000000000000000e+00  -1.7852179082750803e-03 -2.5611725282252897e-02 0.0000000000000000e+00  -1.7675792959576681e-03 -2.5077499310075302e-02 0.0000000000000000e+00  -1.7498455103118196e-03 -2.4543479685942945e-02 0.0000000000000000e+00  -1.7319223064939774e-03 -2.4009673556137437e-02 0.0000000000000000e+00  -1.7139843395433576e-03 -2.3476078045559495e-02 0.0000000000000000e+00  -1.6958471810325706e-03 -2.2942991910407440e-02 0.0000000000000000e+00  -1.6775605271863194e-03 -2.2410203213085556e-02 0.0000000000000000e+00  -1.6592393051009934e-03 -2.1878138369400970e-02 0.0000000000000000e+00  -1.6406005496973136e-03 -2.1346992993413930e-02 0.0000000000000000e+00  -1.6217052630256921e-03 -2.0816058012882364e-02 0.0000000000000000e+00  -1.6028130163021946e-03 -2.0286457047638158e-02 0.0000000000000000e+00  -1.5834486063123993e-03 -1.9758377215982861e-02 0.0000000000000000e+00  -1.5637754564887384e-03 -1.9230674041277717e-02 0.0000000000000000e+00  -1.5442509779488027e-03 -1.8705001617766472e-02 0.0000000000000000e+00  -1.5241011722202092e-03 -1.8181449584450553e-02 0.0000000000000000e+00  -1.5035659962086970e-03 -1.7658435079374223e-02 0.0000000000000000e+00  -1.4833126060665469e-03 -1.7138259030989970e-02 0.0000000000000000e+00  -1.4622798028878338e-03 -1.6620939012509519e-02 0.0000000000000000e+00  -1.4407857656773882e-03 -1.6104340484829147e-02 0.0000000000000000e+00  -1.4197464730127396e-03 -1.5591486303733262e-02 0.0000000000000000e+00  -1.3977406112011155e-03 -1.5082379648300863e-02 0.0000000000000000e+00  -1.3752407212270111e-03 -1.4574624788027268e-02 0.0000000000000000e+00  -1.3529370561276440e-03 -1.4070902610343567e-02 0.0000000000000000e+00  -1.3297241371873711e-03 -1.3572155170997814e-02 0.0000000000000000e+00  -1.3063082273324367e-03 -1.3074376025975372e-02 0.0000000000000000e+00  -1.2839595022194911e-03 -1.2582350849360303e-02 0.0000000000000000e+00  -1.2597372086223277e-03 -1.2096562551029994e-02 0.0000000000000000e+00  -1.2349031810303562e-03 -1.1612222202184394e-02 0.0000000000000000e+00  -1.2104720671505561e-03 -1.1134893944001859e-02 0.0000000000000000e+00  -1.1863565930580473e-03 -1.0661157945215965e-02 0.0000000000000000e+00  -1.1617641619105917e-03 -1.0193294432502583e-02 0.0000000000000000e+00  -1.1374174793686623e-03 -9.7327764577307442e-03 0.0000000000000000e+00  -1.1113187167190398e-03 -9.2761376133394888e-03 0.0000000000000000e+00  -1.0859389918503549e-03 -8.8270271724701695e-03 0.0000000000000000e+00  -1.0592202255618229e-03 -8.3840896855559323e-03 0.0000000000000000e+00  -1.0316822999711557e-03 -7.9485238036153295e-03 0.0000000000000000e+00  -1.0043616569670117e-03 -7.5208955044648862e-03 0.0000000000000000e+00  -9.7844975528782767e-04 -7.0993727012965812e-03 0.0000000000000000e+00  -9.5253017974306021e-04 -6.6868069092769697e-03 0.0000000000000000e+00  -9.2270260037206485e-04 -6.2805550993599952e-03 0.0000000000000000e+00  -8.9585529777876495e-04 -5.8845754570559456e-03 0.0000000000000000e+00  -8.6531068372541558e-04 -5.4985435195347016e-03 0.0000000000000000e+00  -8.3754467339654834e-04 -5.1201734030454785e-03 0.0000000000000000e+00  -8.0820319006501870e-04 -4.7537152464370786e-03 0.0000000000000000e+00  -7.8043835022416569e-04 -4.3947657826520752e-03 0.0000000000000000e+00  -7.5273799467245233e-04 -4.0477364209286588e-03 0.0000000000000000e+00  -7.1998977283748615e-04 -3.7088314590436829e-03 0.0000000000000000e+00  -6.9122720100385873e-04 -3.3827510832995906e-03 0.0000000000000000e+00  -6.5726341651517527e-04 -3.0698857716800420e-03 0.0000000000000000e+00  -6.2834443709726938e-04 -2.7678967229847764e-03 0.0000000000000000e+00  -5.9704535007746229e-04 -2.4836786161040307e-03 0.0000000000000000e+00  -5.6408022701563340e-04 -2.2035528879667554e-03 0.0000000000000000e+00  -5.3285704685843063e-04 -1.9431847538140276e-03 0.0000000000000000e+00  -4.9480575806459576e-04 -1.6955982279860211e-03 0.0000000000000000e+00  -4.6241253027912594e-04 -1.4618290761462933e-03 0.0000000000000000e+00  -4.2758696619909906e-04 -1.2476723205947415e-03 0.0000000000000000e+00  -3.9399862756879555e-04 -1.0448187597421887e-03 0.0000000000000000e+00  -3.6029764361416509e-04 -8.6131318983238793e-04 0.0000000000000000e+00  -3.2023170240741492e-04 -6.9081692720976331e-04 0.0000000000000000e+00  -2.8639028351248386e-04 -5.3898955006828012e-04 0.0000000000000000e+00  -2.4481118374994646e-04 -4.0490668354402993e-04 0.0000000000000000e+00  -2.0778632907114501e-04 -2.9309521244315367e-04 0.0000000000000000e+00  -1.6398637962669604e-04 -1.9993279543208811e-04 0.0000000000000000e+00  -1.2379072533318444e-04 -1.2139647668882912e-04 0.0000000000000000e+00  -8.3314212000261810e-05 -6.6005972152299676e-05 0.0000000000000000e+00  -4.1618804482849369e-05 -3.6944846244086711e-05 0.0000000000000000e+00  -1.3324832540103750e-03 -2.8300861015368588e-02 0.0000000000000000e+00  -2.5196595005516224e-04 -2.8336253844458814e-02 0.0000000000000000e+00  6.0170362525864127e-06 -3.7298869633629249e-05 0.0000000000000000e+00  -5.9311419718549401e-04 -2.2178756519037505e-02 0.0000000000000000e+00  -6.8355974359509157e-04 -2.4886104074193338e-02 0.0000000000000000e+00  1.8090673864901489e-05 -3.5322321773742488e-04 0.0000000000000000e+00  -5.0343765591229531e-04 -1.9039264929427258e-02 0.0000000000000000e+00  -5.5378081565985371e-04 -2.0623945702729629e-02 0.0000000000000000e+00  -2.8424841259687774e-05 -8.7832231687428859e-04 0.0000000000000000e+00  -7.8079097304016077e-04 -2.6455738409224362e-02 0.0000000000000000e+00  -1.2072787064610775e-05 -1.5472147491475559e-03 0.0000000000000000e+00  1.2728028004333182e-05 -3.0081780210634542e-03 0.0000000000000000e+00  -4.5388309953829376e-04 -1.7468120158531945e-02 0.0000000000000000e+00  -6.3060837867822455e-05 -4.2240728922267393e-03 0.0000000000000000e+00  -4.0534220596746958e-04 -1.5915620450639434e-02 0.0000000000000000e+00  -8.9530165468394132e-05 -5.3626264991801127e-03 0.0000000000000000e+00  -1.2981537168063831e-04 -6.9059400349863152e-03 0.0000000000000000e+00  -3.9350560101827149e-04 -1.4348522960614372e-02 0.0000000000000000e+00  -3.0130029564206677e-04 -1.2855127720587676e-02 0.0000000000000000e+00  -1.5546080711684442e-04 -8.1498014114258343e-03 0.0000000000000000e+00  -2.0294074955712576e-04 -9.5230618660580840e-03 0.0000000000000000e+00  -2.5723987355604654e-04 -1.1335490331614970e-02 0.0000000000000000e+00  -1.8205954075476520e-05 -2.0392150367626091e-03 0.0000000000000000e+00  -6.4695048802596575e-04 -2.3823986773225655e-02 0.0000000000000000e+00  -2.3972835860267106e-04 -1.0318627429201376e-02 0.0000000000000000e+00  -4.1370622909386383e-05 -3.6375693174779738e-03 0.0000000000000000e+00  -9.9840955162972255e-05 -6.2038242969251140e-03 0.0000000000000000e+00  -1.0994573102708216e-06 -5.9892247229834919e-04 0.0000000000000000e+00  -9.5047230279275165e-04 -2.7352979318051390e-02 0.0000000000000000e+00  2.6749457899893998e-05 -1.5869170704698208e-04 0.0000000000000000e+00  -9.7697607587166190e-05 -1.3606086017699305e-02 0.0000000000000000e+00  -1.8330658740783014e-04 -1.6659234963451511e-02 0.0000000000000000e+00  -2.2929992704433184e-04 -1.8221319747052048e-02 0.0000000000000000e+00  -3.3982343898627106e-04 -7.5304311992797556e-03 0.0000000000000000e+00  -1.3930212762836681e-04 -1.5118668629173318e-02 0.0000000000000000e+00  -2.7701447639512578e-04 -1.9799507576646339e-02 0.0000000000000000e+00  -5.9164579835423129e-05 -1.2128087908889728e-02 0.0000000000000000e+00  -3.2614189652018562e-04 -2.1389092459003920e-02 0.0000000000000000e+00  -3.8605613886068409e-04 -8.8401661843866206e-03 0.0000000000000000e+00  -2.4057265906195520e-04 -4.7552017297018490e-03 0.0000000000000000e+00  -1.0052127808027782e-04 -1.2328682577841070e-03 0.0000000000000000e+00  -9.4807787101570886e-04 -2.5639082014778533e-02 0.0000000000000000e+00  -9.2757833096503476e-04 -2.2956652825049065e-02 0.0000000000000000e+00  1.3523730925881289e-04 -2.4852699767593084e-03 0.0000000000000000e+00  -1.9796679993962265e-04 -2.2760504930300903e-02 0.0000000000000000e+00  -2.5168409997208992e-04 -2.5976513585206067e-03 0.0000000000000000e+00  -9.9092811334802115e-04 -2.1602940333797484e-02 0.0000000000000000e+00  -9.3766861620423305e-04 -2.0012178112084434e-02 0.0000000000000000e+00  -8.8407863752572866e-04 -1.8432291180068595e-02 0.0000000000000000e+00  -2.9427937098387355e-04 -2.5897600213538440e-02 0.0000000000000000e+00  1.5280595989669631e-04 -1.1472685157809994e-03 0.0000000000000000e+00  -7.7575008653610865e-04 -1.5324321417431700e-02 0.0000000000000000e+00  -8.3010029236898716e-04 -1.6867860579008447e-02 0.0000000000000000e+00  1.8784422279065948e-04 -7.3589008088128750e-03 0.0000000000000000e+00  2.0886862965861794e-04 -4.6078339890721067e-03 0.0000000000000000e+00  -7.0584081192962705e-04 -1.3366197981918947e-02 0.0000000000000000e+00  -6.6611380760559803e-04 -1.2324976155838507e-02 0.0000000000000000e+00  1.6910711576116364e-04 -8.6600829677737513e-03 0.0000000000000000e+00  -1.7604840618117283e-05 -1.6251809338689062e-05 0.0000000000000000e+00  1.4492907049535011e-05 -1.2899062190847110e-05 0.0000000000000000e+00  1.1522265516676917e-04 -1.0972588001904694e-02 0.0000000000000000e+00  -3.9297359216186042e-04 -5.6597976908784086e-03 0.0000000000000000e+00  -2.9284656441592636e-04 -3.2319751036526500e-03 0.0000000000000000e+00  -1.0525478313397625e-04 -4.5703262140580671e-04 0.0000000000000000e+00  -1.3208633087455091e-04 -7.6580568505185773e-04 0.0000000000000000e+00  1.5147972677742358e-04 -1.0013255659055753e-02 0.0000000000000000e+00  -3.2238425006204718e-04 -3.8616637528590455e-03 0.0000000000000000e+00  -4.4095958428298451e-04 -6.4722638579218332e-03 0.0000000000000000e+00  -2.0769570202097026e-04 -1.8515149847090520e-03 0.0000000000000000e+00  -2.5111139545285735e-04 -2.4242424789367532e-02 0.0000000000000000e+00  -1.0834420921487958e-03 -2.4245950013509415e-02 0.0000000000000000e+00  1.7615787293104350e-04 -1.8395129161682339e-03 0.0000000000000000e+00  -7.7121095370968646e-05 -2.2007710178466289e-04 0.0000000000000000e+00  -2.3712040718445641e-04 -2.6963022927761700e-02 0.0000000000000000e+00  -6.7753595159315535e-04 -1.0935270332918549e-02 0.0000000000000000e+00  -5.9972719013659959e-04 -9.9569234042594882e-03 0.0000000000000000e+00  2.6096838441665529e-04 -3.2235401951730370e-03 0.0000000000000000e+00  1.2519626812052112e-04 -4.5058503716420757e-04 0.0000000000000000e+00  1.6015604830560445e-04 -7.7774854760513841e-04 0.0000000000000000e+00  2.5518967106101151e-04 -5.6896222111072672e-03 0.0000000000000000e+00  2.9453700208228149e-04 -3.8648573927257505e-03 0.0000000000000000e+00  3.0303747194559120e-04 -6.4767005959190044e-03 0.0000000000000000e+00  -4.8871688646598161e-05 -1.1577606114366249e-04 0.0000000000000000e+00  -3.3546809821102770e-04 -2.7719601356153239e-02 0.0000000000000000e+00  -1.0217273993916179e-03 -2.0975711508477473e-02 0.0000000000000000e+00  -9.6810765192334902e-04 -1.9388809215805474e-02 0.0000000000000000e+00  1.8241069442470173e-04 -1.3994358332208054e-03 0.0000000000000000e+00  -9.1397121443009333e-04 -1.7814485479506263e-02 0.0000000000000000e+00  -2.2304513282596705e-04 -2.5271312100213716e-02 0.0000000000000000e+00  -8.5929243638687260e-04 -1.6257665118930498e-02 0.0000000000000000e+00  -8.0461092317868051e-04 -1.4728457811498369e-02 0.0000000000000000e+00  2.4261142331898278e-04 -5.0404408144651613e-03 0.0000000000000000e+00  -7.7547934099587881e-04 -1.3948249772444450e-02 0.0000000000000000e+00  2.2132066547692647e-04 -7.8636030412210876e-03 0.0000000000000000e+00  -6.9371297632504173e-04 -1.1752411986511901e-02 0.0000000000000000e+00  2.0323628868996565e-04 -9.1893924692712289e-03 0.0000000000000000e+00  -1.2100123194721444e-03 -2.6844977252256340e-02 0.0000000000000000e+00  -1.5353096125441138e-04 -2.3381778348896591e-02 0.0000000000000000e+00  -2.6627935473805720e-04 -2.2695962186663134e-03 0.0000000000000000e+00  9.6046775417131514e-05 -2.3814192329072999e-04 0.0000000000000000e+00  5.0878081920586467e-05 -9.2543356879569135e-05 0.0000000000000000e+00  1.5458821135373168e-04 -1.3134331518753749e-02 0.0000000000000000e+00  -6.0540344437202433e-04 -9.2568577100350397e-03 0.0000000000000000e+00  1.1951937225394474e-04 -1.4636531651116372e-02 0.0000000000000000e+00  -1.6196583618452535e-05 -1.9296321291659896e-02 0.0000000000000000e+00  7.0643753635836240e-05 -1.6166999323922987e-02 0.0000000000000000e+00  2.8543047626950030e-05 -1.7722778733592646e-02 0.0000000000000000e+00  -4.9566872563407626e-04 -7.9588971387775688e-03 0.0000000000000000e+00  1.6943129790254792e-04 -1.1678856709071688e-02 0.0000000000000000e+00  -4.1735862345419875e-04 -5.1016658245335101e-03 0.0000000000000000e+00  -5.2703491511166592e-04 -7.1186024898483632e-03 0.0000000000000000e+00  -8.4096057649846569e-05 -2.1911626902991324e-02 0.0000000000000000e+00  -3.9800063229922022e-04 -4.4059445379649471e-03 0.0000000000000000e+00  -1.3740223393059387e-04 -2.0860406455820421e-02 0.0000000000000000e+00  -2.0905604653067721e-04 -1.4363424414730961e-03 0.0000000000000000e+00  -1.8528833829066895e-04 -1.0375625488317709e-03 0.0000000000000000e+00  -1.2018301211419076e-03 -2.6105816039407304e-02 0.0000000000000000e+00  -1.1907239665549353e-03 -2.5114197550418525e-02 0.0000000000000000e+00  -1.0637354539611195e-04 -1.8775305265503372e-02 0.0000000000000000e+00  -6.1253502767750370e-05 -1.7206956816826338e-02 0.0000000000000000e+00  4.8259444202978809e-05 -1.4117853325531064e-02 0.0000000000000000e+00  -1.2777751355573860e-04 -2.0342890641874174e-02 0.0000000000000000e+00  -1.8529322880156085e-05 -1.5658165344791947e-02 0.0000000000000000e+00  9.2465087616346974e-05 -1.2628742858268014e-02 0.0000000000000000e+00  -5.0760749402602081e-04 -8.3848163977357486e-03 0.0000000000000000e+00  2.3194379640254994e-04 -2.2249518283033363e-03 0.0000000000000000e+00  -1.1412871029094821e-03 -2.3458075693249519e-02 0.0000000000000000e+00  -1.0921984207837496e-03 -2.2445927912550640e-02 0.0000000000000000e+00  2.3954376666982031e-04 -2.7687051134002599e-03 0.00000000000