<?xml version="1.0"?>
<VTKFile type="UnstructuredGrid"  version="0.1"  >
<UnstructuredGrid>
<Piece  NumberOfPoints="439" NumberOfCells="725">
<Points>
<DataArray  type="Float64"  NumberOfComponents="3"  format="ascii">0.5997976356598325 0.1814789283767821 0  0.6001660388007006 0.201480753026655 0  0.2489897949 0.21 0  0.2489897949 0.19 0  0.5999818407480937 0.1914798181403961 0  0.2496355385699469 0.2060260530378829 0  0.249959460510575 0.2020130349814059 0  0.2499594605105767 0.1979869650186357 0  0.24963553856995 0.1939739469621422 0  0.2539602442101268 0.2099757969734643 0  0.258931958415295 0.2099500570144451 0  0.2639028066016861 0.2099178405257147 0  0.268871455526199 0.2098665023875385 0  0.2738378949171347 0.2098055979969904 0  0.278804446910052 0.2097309401817855 0  0.2837680122560193 0.2096499182660257 0  0.2887288211863538 0.2095573051347432 0  0.2936890354248213 0.2094562156365618 0  0.2986473584877023 0.2093470689502661 0  0.3036057471027108 0.209227854476069 0  0.3085633682737865 0.2091073223340377 0  0.313517804648287 0.2089761518350938 0  0.3184735793607474 0.2088402162699938 0  0.3234259154342488 0.2086997295260792 0  0.3283779072862194 0.2085535930865839 0  0.3333285224872687 0.2084043150331937 0  0.33827798364616 0.2082501510123747 0  0.3432261327788141 0.2080945591361363 0  0.3481734568221406 0.2079356379400154 0  0.3531197739356169 0.2077747585511779 0  0.3580651531304759 0.207612483171339 0  0.3630099807866278 0.2074483604744821 0  0.3679542626901344 0.2072842604492717 0  0.3728975959279371 0.2071190468047197 0  0.3778403705334411 0.2069540471820265 0  0.3827825003895988 0.2067890618092379 0  0.3877241236151458 0.206624428325061 0  0.3926653541148553 0.2064606349830225 0  0.3976058466820702 0.2062984245783877 0  0.4025459143856402 0.2061365479591774 0  0.4074859453081209 0.2059767469837069 0  0.4124253640266765 0.2058192709628879 0  0.4173644727295559 0.2056624615021855 0  0.4223037324291099 0.2055087237854008 0  0.4272420625676391 0.2053566757445262 0  0.4321809417003278 0.2052072839771138 0  0.4371187520883623 0.2050606307054811 0  0.4420572923379041 0.2049161469052233 0  0.4469958254019846 0.2047748266820041 0  0.4519339433667877 0.2046359100225363 0  0.4568717760702058 0.2044999238564482 0  0.461810302347518 0.2043668719048553 0  0.4667484001114737 0.2042364239487133 0  0.4716863795901717 0.2041090587948252 0  0.4766251144546856 0.2039846394739842 0  0.4815636341508155 0.2038627679897185 0  0.4865021163870676 0.2037438792636228 0  0.491441351980464 0.2036276191888949 0  0.496380474844374 0.2035137130830422 0  0.5013196428728023 0.2034024914240813 0  0.5062595455102022 0.2032936272469275 0  0.5111994299955392 0.2031867867587952 0  0.5161394566027412 0.2030822497509888 0  0.5210801831607437 0.2029796552775075 0  0.5260208870810736 0.2028787330706225 0  0.5309618311489225 0.2027796086682 0  0.5359032294581768 0.202681991166159 0  0.5408450952746512 0.2025855235199729 0  0.5457873800935394 0.2024904581377262 0  0.550729822515186 0.202396570570473 0  0.5556723937997393 0.2023028968264691 0  0.5606154193452773 0.2022104099475077 0  0.5655584563485441 0.2021183910720789 0  0.5705019197975256 0.2020267682156812 0  0.5754456044000981 0.2019356207996617 0  0.5803894292634302 0.2018445138309679 0  0.5853334655740506 0.2017535852198668 0  0.5902775961533708 0.2016627197084985 0  0.5952217938891627 0.2015717414010201 0  0.59485336130857 0.1815699633787391 0  0.5899090147278833 0.1816609499371069 0  0.584964604297438 0.1817518595540978 0  0.5800200413002579 0.1818428052734146 0  0.5750753190467831 0.1819339058593776 0  0.5701304261389371 0.1820250924335512 0  0.5651852742591847 0.1821167279440706 0  0.5602397163913585 0.1822087976274928 0  0.5552941046048235 0.1823013116996477 0  0.5503480823509206 0.1823947779938253 0  0.545401802254677 0.1824887966238152 0  0.5404554283674577 0.1825840977481186 0  0.5355085209519667 0.1826809183479919 0  0.5305612597890073 0.1827780852219427 0  0.5256140094669373 0.1828773634701564 0  0.5206661010162176 0.1829788390747784 0  0.5157178442666578 0.1830808514188517 0  0.510769841442812 0.183185690285696 0  0.5058211275005223 0.1832932063751375 0  0.5008720659856261 0.1834013889524635 0  0.4959234539685327 0.1835130072138538 0  0.4909741322359434 0.1836277352010247 0  0.4860244914652347 0.1837432323684579 0  0.4810755033345104 0.1838626210854917 0  0.4761258425528407 0.1839854532246086 0  0.4711759475580343 0.1841094376340196 0  0.4662264944247431 0.1842370733224331 0  0.4612766523943226 0.1843684459769121 0  0.4563269421333948 0.1845006863505651 0  0.4513782886091046 0.1846370000700356 0  0.4464288588316732 0.1847772457066801 0  0.4414793927534011 0.1849182593991283 0  0.4365306088581014 0.1850633674557775 0  0.4315823427841461 0.1852101789520861 0  0.4266343196910614 0.1853598524708676 0  0.421686856356976 0.1855124110943215 0  0.4167392337113293 0.1856665428122402 0  0.4117922463960103 0.1858231695082128 0  0.406845454661718 0.1859815175368895 0  0.4018991391879427 0.1861417418222617 0  0.3969535618884864 0.1863034930232955 0  0.392008758168984 0.1864663550366762 0  0.3870644939744854 0.1866303561400665 0  0.3821205192032158 0.1867951182135608 0  0.3771774647505874 0.186960183684895 0  0.3722351773797722 0.1871255786140073 0  0.367293462025763 0.1872907309361925 0  0.3623525071971996 0.1874550689856326 0  0.357412157257982 0.1876188659245219 0  0.3524724959153465 0.1877812148043987 0  0.3475343431403104 0.1879425349336256 0  0.3425963384364883 0.1881012325906535 0  0.3376604316864824 0.1882572938580641 0  0.3327240018925121 0.188410454364914 0  0.3277891993922577 0.1885585023736624 0  0.3228554576019928 0.1887052079647142 0  0.3179221642297077 0.1888455563103038 0  0.3129922630119075 0.1889811924188965 0  0.3080609739474204 0.1891114566607586 0  0.3031316438248451 0.1892335184775425 0  0.2982026343806517 0.1893506340222089 0  0.2932745762356489 0.1894588099539287 0  0.2883503943086306 0.1895607446205395 0  0.2834240193860222 0.1896528672884249 0  0.2785026467649308 0.189735961471665 0  0.2735797333080623 0.189806297526444 0  0.2686616274531327 0.1898660672240702 0  0.2637421083422175 0.1899170695139919 0  0.2588234628276039 0.189953939105332 0  0.25390628970697 0.1899745629365948 0  0.5998897212610665 0.1864793733642579 0  0.6000739683188271 0.1964802825747874 0  0.2589769018479415 0.2005247646693773 0  0.5431225729508578 0.1925356920806901 0  0.5682180376284577 0.1920346504276339 0  0.2774619363463098 0.2005617396826436 0  0.5138208266529875 0.1930255566852741 0  0.5286537718205859 0.192721139182803 0  0.2944950023861606 0.1987389138123905 0  0.5827498550757826 0.1913394429383083 0  0.3104089100760988 0.1990337020542102 0  0.3370160605780455 0.199118203804313 0  0.4989879550010062 0.1933482734398397 0  0.3552677029314125 0.1976990199946634 0  0.4841553038774011 0.1936927776936808 0  0.3707197606896923 0.1971989309492706 0  0.3898655585771267 0.1965443546105177 0  0.4689441012676545 0.1937103985164623 0  0.4541276115356042 0.1945646888125565 0  0.4043310023317525 0.1961663669208303 0  0.4195232295615203 0.1955842562458417 0  0.4386719417870575 0.1949893733971198 0  0.3202423327181527 0.1988018237766682 0  0.558382969508796 0.192237879877194 0  0.428033166642914 0.1951706440697629 0  0.3467588200112098 0.198128638466595 0  0.3813569007744509 0.1969793279106591 0  0.2860676901320567 0.1996577215178386 0  0.5910710489732163 0.1898879228495933 0  0.2680053336650616 0.2015670586323267 0  0.4616033456941777 0.1966139080418121 0  0.4912602784625044 0.195874566424341 0  0.5060896984439294 0.195540798161166 0  0.3972065307053859 0.1940495142922308 0  0.476431485377501 0.1962315259557948 0  0.520919800169986 0.1952272326218687 0  0.4467759351299033 0.1970223991527535 0  0.5357505614716319 0.1949301184472759 0  0.4120374034509637 0.1935687669568244 0  0.3626076672394066 0.1952035350928504 0  0.3033167404179674 0.1969907855915451 0  0.5752187136128163 0.1896838050251484 0  0.5503819452151293 0.1895245732268134 0  0.3282694344276689 0.201429614109576 0  0.5484684140816148 0.1962758878866496 0  0.3301134413429622 0.1946574040067058 0  0.5378205119706025 0.1887618678126759 0  0.5229839223410329 0.1890569567451422 0  0.5081464827313138 0.1893679703990651 0  0.5775230385833612 0.1957692232272112 0  0.3012689118789837 0.2031668286662123 0  0.4784698443993778 0.1900523618315068 0  0.4933083520427331 0.1896987021352737 0  0.3952159130776631 0.2002452636365211 0  0.3606180971453619 0.201399356005343 0  0.4592488980966078 0.1905481271287502 0  0.4487933405123186 0.1908360498219552 0  0.4100411586360653 0.1997627252031246 0  0.2557749021753772 0.1960729738206131 0  0.2550238533712246 0.2034324357310831 0  0.4348856896605732 0.1988926225429699 0  0.3744923163542271 0.1932813996701172 0  0.3404925983697296 0.1942220972913653 0  0.2812364690945929 0.1957495011798772 0  0.2911914179598979 0.1955963717750151 0  0.4247630052115713 0.1993789026794966 0  0.350023060274915 0.1939150544083353 0  0.3846168711234811 0.1927628325175182 0  0.3165244218088412 0.1950537850349371 0  0.5622040971213546 0.1959590201249511 0  0.5623460505832816 0.188247620021265 0  0.3163386308481397 0.2027712055977315 0  0.2710405909508083 0.1958218317883486 0  0.5873692233879633 0.1964366394424729 0  0.434504357622551 0.190589494247493 0  0.4241749310660324 0.1913129248648816 0  0.3403947764392436 0.2029778546081473 0  0.2809436690374923 0.2044821251509396 0  0.2915016945549966 0.204290165713856 0  0.3749022081261417 0.2015828587526991 0  0.3500747250551978 0.2030477448797854 0  0.3846775405646646 0.201896878117439 0  0.2647833726540034 0.1961290556061848 0  0.5943805618908414 0.1956261827926049 0  0.5319854075378634 0.1883956113483862 0  0.517148096454796 0.1886965420971975 0  0.307096125029474 0.203495128374523 0  0.502309812272692 0.1890149107246143 0  0.5717202481386611 0.196348341724512 0  0.4874708352650785 0.1893543366868557 0  0.4726749954506842 0.189712241763565 0  0.3664568760194006 0.2016979383002099 0  0.465
[...]
<PointData  Vectors="f_20-1"> 
<DataArray  type="Float64"  Name="f_20-1"  NumberOfComponents="3" format="ascii">-2.0236434016751353e-04 -8.5210716232178851e-03 0.0000000000000000e+00  1.6603880070072732e-04 -8.5192469733449683e-03 0.0000000000000000e+00  0.0000000000000000e+00 0.0000000000000000e+00 0.0000000000000000e+00  0.0000000000000000e+00 0.0000000000000000e+00 0.0000000000000000e+00  -1.8159251906166188e-05 -8.5201818596038672e-03 0.0000000000000000e+00  0.0000000000000000e+00 0.0000000000000000e+00 0.0000000000000000e+00  0.0000000000000000e+00 0.0000000000000000e+00 0.0000000000000000e+00  0.0000000000000000e+00 0.0000000000000000e+00 0.0000000000000000e+00  0.0000000000000000e+00 0.0000000000000000e+00 0.0000000000000000e+00  2.6643604497446066e-05 -2.4203026535716778e-05 0.0000000000000000e+00  5.4552104040777033e-05 -4.9942985554901013e-05 0.0000000000000000e+00  8.1594584793992533e-05 -8.2159474285249052e-05 0.0000000000000000e+00  1.0643780366904957e-04 -1.3349761246145032e-04 0.0000000000000000e+00  1.2907148897785725e-04 -1.9440200300957990e-04 0.0000000000000000e+00  1.5181777627662268e-04 -2.6905981821445901e-04 0.0000000000000000e+00  1.7157741662557393e-04 -3.5008173397427944e-04 0.0000000000000000e+00  1.8858064133727486e-04 -4.4269486525680673e-04 0.0000000000000000e+00  2.0498917416910927e-04 -5.4378436343819356e-04 0.0000000000000000e+00  2.1950653143154304e-04 -6.5293104973392145e-04 0.0000000000000000e+00  2.3408944081104469e-04 -7.7214552393099171e-04 0.0000000000000000e+00  2.4790490626838913e-04 -8.9267766596230031e-04 0.0000000000000000e+00  2.5853557515056596e-04 -1.0238481649061742e-03 0.0000000000000000e+00  2.7050458199247957e-04 -1.1597837300061967e-03 0.0000000000000000e+00  2.7903494987559441e-04 -1.3002704739207931e-03 0.0000000000000000e+00  2.8722109622766499e-04 -1.4464069134161319e-03 0.0000000000000000e+00  2.9403059164793006e-04 -1.5956849668062639e-03 0.0000000000000000e+00  2.9968604493157725e-04 -1.7498489876253032e-03 0.0000000000000000e+00  3.0402947195655883e-04 -1.9054408638636841e-03 0.0000000000000000e+00  3.0754780966459207e-04 -2.0643620599845548e-03 0.0000000000000000e+00  3.1005921752241339e-04 -2.2252414488221437e-03 0.0000000000000000e+00  3.1163270676313006e-04 -2.3875168286610488e-03 0.0000000000000000e+00  3.1265465729672550e-04 -2.5516395255178884e-03 0.0000000000000000e+00  3.1313085518486954e-04 -2.7157395507283379e-03 0.0000000000000000e+00  3.1265838735827859e-04 -2.8809531952802680e-03 0.0000000000000000e+00  3.1162728725342924e-04 -3.0459528179735598e-03 0.0000000000000000e+00  3.0995143778679628e-04 -3.2109381907621322e-03 0.0000000000000000e+00  3.0776895771202420e-04 -3.3755716749389818e-03 0.0000000000000000e+00  3.0519375179221305e-04 -3.5393650169775240e-03 0.0000000000000000e+00  3.0188061339957509e-04 -3.7015754216123179e-03 0.0000000000000000e+00  2.9814261134164272e-04 -3.8634520408225756e-03 0.0000000000000000e+00  2.9436782821023024e-04 -4.0232530162930989e-03 0.0000000000000000e+00  2.8998084114541408e-04 -4.1807290371120801e-03 0.0000000000000000e+00  2.8528383840412537e-04 -4.3375384978144886e-03 0.0000000000000000e+00  2.8073783234628492e-04 -4.4912762145991542e-03 0.0000000000000000e+00  2.7526226524722904e-04 -4.6433242554738373e-03 0.0000000000000000e+00  2.7033569230253048e-04 -4.7927160228861685e-03 0.0000000000000000e+00  2.6434037468497858e-04 -4.9393692945188519e-03 0.0000000000000000e+00  2.5907491857117055e-04 -5.0838530947766710e-03 0.0000000000000000e+00  2.5380227698787526e-04 -5.2251733179959183e-03 0.0000000000000000e+00  2.4811453614323860e-04 -5.3640899774637435e-03 0.0000000000000000e+00  2.4214153391942600e-04 -5.5000761435517560e-03 0.0000000000000000e+00  2.3686210560203125e-04 -5.6331280951447274e-03 0.0000000000000000e+00  2.3115416390723304e-04 -5.7635760512866636e-03 0.0000000000000000e+00  2.2532793697203245e-04 -5.8909412051747602e-03 0.0000000000000000e+00  2.2025709581880598e-04 -6.0153605260158246e-03 0.0000000000000000e+00  2.1497108630211438e-04 -6.1372320102815112e-03 0.0000000000000000e+00  2.0964761689150932e-04 -6.2561207363772305e-03 0.0000000000000000e+00  2.0507750465733471e-04 -6.3723808111051080e-03 0.0000000000000000e+00  2.0039466291297203e-04 -6.4862869169578187e-03 0.0000000000000000e+00  1.9575698571253910e-04 -6.5975085759186975e-03 0.0000000000000000e+00  1.9185391745291376e-04 -6.7063727530725127e-03 0.0000000000000000e+00  1.8793269715194718e-04 -6.8132132412048046e-03 0.0000000000000000e+00  1.8415359873757961e-04 -6.9177502490111713e-03 0.0000000000000000e+00  1.8107445110220635e-04 -7.0203447224924491e-03 0.0000000000000000e+00  1.7797266577355573e-04 -7.1212669293775127e-03 0.0000000000000000e+00  1.7511102798340548e-04 -7.2203913318000090e-03 0.0000000000000000e+00  1.7270363157810163e-04 -7.3180088338410318e-03 0.0000000000000000e+00  1.7076374241453224e-04 -7.4144764800270525e-03 0.0000000000000000e+00  1.6924285568665329e-04 -7.5095418622737669e-03 0.0000000000000000e+00  1.6787957169512986e-04 -7.6034294295270330e-03 0.0000000000000000e+00  1.6664515059376287e-04 -7.6971031735309356e-03 0.0000000000000000e+00  1.6586499048888871e-04 -7.7895900524922483e-03 0.0000000000000000e+00  1.6509628809608225e-04 -7.8816089279210612e-03 0.0000000000000000e+00  1.6475403141394252e-04 -7.9732317843187617e-03 0.0000000000000000e+00  1.6463292835214608e-04 -8.0643792003383032e-03 0.0000000000000000e+00  1.6465208604672839e-04 -8.1554861690321234e-03 0.0000000000000000e+00  1.6488269101657570e-04 -8.2464147801331912e-03 0.0000000000000000e+00  1.6520756468987711e-04 -8.3372802915015216e-03 0.0000000000000000e+00  1.6559959482226048e-04 -8.4282585989798545e-03 0.0000000000000000e+00  -2.0283298581330448e-04 -8.4300366212608589e-03 0.0000000000000000e+00  -2.0337386087477944e-04 -8.3390500628931549e-03 0.0000000000000000e+00  -2.0397858568131709e-04 -8.2481404459022727e-03 0.0000000000000000e+00  -2.0473587721487894e-04 -8.1571947265854147e-03 0.0000000000000000e+00  -2.0565242506832314e-04 -8.0660941406223863e-03 0.0000000000000000e+00  -2.0673962729373071e-04 -7.9749075664488668e-03 0.0000000000000000e+00  -2.0808580143328708e-04 -7.8832720559294210e-03 0.0000000000000000e+00  -2.0983796363048470e-04 -7.7912023725072079e-03 0.0000000000000000e+00  -2.1164404453447288e-04 -7.6986883003522921e-03 0.0000000000000000e+00  -2.1386059278280159e-04 -7.6052220061747352e-03 0.0000000000000000e+00  -2.1633498342723252e-04 -7.5112033761847502e-03 0.0000000000000000e+00  -2.1890316504710443e-04 -7.4159022518813754e-03 0.0000000000000000e+00  -2.2200487492933779e-04 -7.3190816520080438e-03 0.0000000000000000e+00  -2.2546033225579642e-04 -7.2219147780572647e-03 0.0000000000000000e+00  -2.2890494872553755e-04 -7.1226365298436628e-03 0.0000000000000000e+00  -2.3300769380680823e-04 -7.0211609252216279e-03 0.0000000000000000e+00  -2.3745873776405055e-04 -6.9191485811483178e-03 0.0000000000000000e+00  -2.4165585601060541e-04 -6.8143097143040015e-03 0.0000000000000000e+00  -2.4656409269546448e-04 -6.7067936248624439e-03 0.0000000000000000e+00  -2.5181990195449701e-04 -6.5986110475365163e-03 0.0000000000000000e+00  -2.5662621343931611e-04 -6.4869927861462085e-03 0.0000000000000000e+00  -2.6214224040967593e-04 -6.3722647989752391e-03 0.0000000000000000e+00  -2.6797730549957678e-04 -6.2567676315421752e-03 0.0000000000000000e+00  -2.7315973059419498e-04 -6.1373789145083117e-03 0.0000000000000000e+00  -2.7901480665593932e-04 -6.0145467753914246e-03 0.0000000000000000e+00  -2.8510409583406860e-04 -5.8905623659804302e-03 0.0000000000000000e+00  -2.9075152351249286e-04 -5.7629266775669156e-03 0.0000000000000000e+00  -2.9678784831223997e-04 -5.6315540230879053e-03 0.0000000000000000e+00  -3.0269240361555138e-04 -5.4993136494348865e-03 0.0000000000000000e+00  -3.0754022227624003e-04 -5.3629999299644642e-03 0.0000000000000000e+00  -3.1316429409843755e-04 -5.2227542933198801e-03 0.0000000000000000e+00  -3.1882466674545073e-04 -5.0817406008716749e-03 0.0000000000000000e+00  -3.2380285642831232e-04 -4.9366325442225028e-03 0.0000000000000000e+00  -3.2826322476704690e-04 -4.7898210479138982e-03 0.0000000000000000e+00  -3.3248061222521856e-04 -4.6401475291324504e-03 0.0000000000000000e+00  -3.3613824067211574e-04 -4.4875889056785025e-03 0.0000000000000000e+00  -3.3995518067627241e-04 -4.3334571877598205e-03 0.0000000000000000e+00  -3.4313679034913809e-04 -4.1768304917872137e-03 0.0000000000000000e+00  -3.4612281898152076e-04 -4.0184824631104808e-03 0.0000000000000000e+00  -3.4863258710511873e-04 -3.8582581777383594e-03 0.0000000000000000e+00  -3.5040418090371130e-04 -3.6965069767044634e-03 0.0000000000000000e+00  -3.5140219477081857e-04 -3.5336449633237878e-03 0.0000000000000000e+00  -3.5186068362284481e-04 -3.3696438599334975e-03 0.0000000000000000e+00  -3.5202974926663448e-04 -3.2048817864391522e-03 0.0000000000000000e+00  -3.5127849623840866e-04 -3.0398163151050422e-03 0.0000000000000000e+00  -3.4976016140504185e-04 -2.8744213859927298e-03 0.0000000000000000e+00  -3.4766980974547726e-04 -2.7092690638075016e-03 0.0000000000000000e+00  -3.4481893266179913e-04 -2.5449310143673921e-03 0.0000000000000000e+00  -3.4136316622881263e-04 -2.3811340754781134e-03 0.0000000000000000e+00  -3.3721880324248107e-04 -2.2187851956013364e-03 0.0000000000000000e+00  -3.3156587262063859e-04 -2.0574650663743640e-03 0.0000000000000000e+00  -3.2576487080366001e-04 -1.8987674093464610e-03 0.0000000000000000e+00  -3.1786591517115389e-04 -1.7427061419358677e-03 0.0000000000000000e+00  -3.1049000350308402e-04 -1.5895456350860063e-03 0.0000000000000000e+00  -3.0148679811744654e-04 -1.4414976263376527e-03 0.0000000000000000e+00  -2.9142288272437916e-04 -1.2947920352857321e-03 0.0000000000000000e+00  -2.8091054935146828e-04 -1.1544436896962257e-03 0.0000000000000000e+00  -2.6700606149374073e-04 -1.0188075811034948e-03 0.0000000000000000e+00  -2.5448942033778107e-04 -8.8854333924136904e-04 0.0000000000000000e+00  -2.4001383727462969e-04 -7.6648152245753010e-04 0.0000000000000000e+00  -2.2521757582953325e-04 -6.4936597779107288e-04 0.0000000000000000e+00  -2.0947001519399926e-04 -5.4119004607133499e-04 0.0000000000000000e+00  -1.8984623655680469e-04 -4.3925537946046809e-04 0.0000000000000000e+00  -1.7241545350731892e-04 -3.4713271157514955e-04 0.0000000000000000e+00  -1.4998236894085709e-04 -2.6403852833504983e-04 0.0000000000000000e+00  -1.2909012016204966e-04 -1.9370247355600319e-04 0.0000000000000000e+00  -1.0339026945327160e-04 -1.3393277592986012e-04 0.0000000000000000e+00  -7.9103674730067233e-05 -8.2930486008049256e-05 0.0000000000000000e+00  -5.3943483705414293e-05 -4.6060894667977861e-05 0.0000000000000000e+00  -2.7310898687884592e-05 -2.5437063405210895e-05 0.0000000000000000e+00  -1.1027873893339585e-04 -8.5206266357203825e-03 0.0000000000000000e+00  7.3968318827282399e-05 -8.5197174251854923e-03 0.0000000000000000e+00  3.4753162922002990e-06 -2.7624673463065559e-05 0.0000000000000000e+00  -2.3661434449970281e-05 -7.4643079192788786e-03 0.0000000000000000e+00  -2.1751848358503563e-05 -7.9358081532648495e-03 0.0000000000000000e+00  1.0543634507365346e-05 -2.3245225954901660e-04 0.0000000000000000e+00  -2.8756723909456604e-05 -6.8767859638177720e-03 0.0000000000000000e+00  -2.7228673152212487e-05 -7.1812034662939606e-03 0.0000000000000000e+00  -1.5892819604055393e-05 -5.5227702814811979e-04 0.0000000000000000e+00  -2.8228062710054978e-05 -8.2035371620265436e-03 0.0000000000000000e+00  -3.9295808267395090e-06 -9.3675652668753925e-04 0.0000000000000000e+00  1.5885036190351759e-05 -1.7112574390837224e-03 0.0000000000000000e+00  -3.0211259039724291e-05 -6.5540692092505275e-03 0.0000000000000000e+00  -1.3914639491796784e-05 -2.3009800053973503e-03 0.0000000000000000e+00  -3.1445265791398027e-05 -6.2095649554040951e-03 0.0000000000000000e+00  -1.7610700862800016e-05 -2.8153067460983164e-03 0.0000000000000000e+00  -2.2698933122882645e-05 -3.4556453895650476e-03 0.0000000000000000e+00  -4.1653781618904984e-05 -5.8312739092071181e-03 0.0000000000000000e+00  -3.0120148592540551e-05 -5.4353111873532882e-03 0.0000000000000000e+00  -2.2489070080596041e-05 -3.9312904300940867e-03 0.0000000000000000e+00  -2.7862182436551707e-05 -4.4157437542639419e-03 0.0000000000000000e+00  -3.0036077393694215e-05 -4.9963889075573618e-03 0.0000000000000000e+00  -4.9423075175392493e-06 -1.2070604379716802e-03 0.0000000000000000e+00  -2.2384599289069295e-05 -7.7532359081637307e-03 0.0000000000000000e+00  -3.3548045799437727e-05 -4.6782607510611543e-03 0.0000000000000000e+00  -7.1746153375672071e-06 -2.0224567128424645e-03 0.0000000000000000e+00  -1.5733791439865260e-05 -3.1717672687929886e-03 0.0000000000000000e+00  -6.4756015308493415e-07 -3.8382305277961628e-04 0.0000000000000000e+00  -5.1332204903111428e-05 -8.3569930852811138e-03 0.0000000000000000e+00  1.6017519198967449e-05 -1.0806701440231413e-04 0.0000000000000000e+00  2.9905451549868107e-05 -5.6364552869882564e-03 0.0000000000000000e+00  2.4003986159055590e-05 -6.3757969044681067e-03 0.0000000000000000e+00  2.2006850730976312e-05 -6.7095651676457903e-03 0.0000000000000000e+00  -9.7435363291528619e-05 -3.7001223789656771e-03 0.0000000000000000e+00  2.6628018011293110e-05 -6.0188373730103205e-03 0.0000000000000000e+00  2.0691459940508225e-05 -7.0231307069496653e-03 0.0000000000000000e+00  3.3912004137646419e-05 -5.2279641760464689e-03 0.0000000000000000e+00  2.0035644747097160e-05 -7.3202448815438996e-03 0.0000000000000000e+00  -9.7979734568004410e-05 -4.1808697143732136e-03 0.0000000000000000e+00  -8.9658889928674522e-05 -2.5461015783415533e-03 0.0000000000000000e+00  -5.4917243928732508e-05 -7.5885107964181317e-04 0.0000000000000000e+00  -6.2257859006670981e-05 -8.0658316460019194e-03 0.0000000000000000e+00  -7.7910703926765474e-05 -7.6039052469533235e-03 0.0000000000000000e+00  7.6661212984769771e-05 -1.4419074166645660e-03 0.0000000000000000e+00  5.0512031868746988e-05 -7.5644336828266413e-03 0.0000000000000000e+00  -1.2128574103662388e-04 -1.5022744238433168e-03 0.0000000000000000e+00  -1.0057325320885882e-04 -7.3633138517350677e-03 0.0000000000000000e+00  -1.0574576593244084e-04 -7.0682249192635244e-03 0.0000000000000000e+00  -1.1176825880848731e-04 -6.7572112653447227e-03 0.0000000000000000e+00  5.1507714651710233e-05 -8.1055951083775658e-03 0.0000000000000000e+00  8.7813614028966772e-05 -7.0798966938138421e-04 0.0000000000000000e+00  -1.2557235703330316e-04 -6.0728198328971828e-03 0.0000000000000000e+00  -1.1848183053401589e-04 -6.4264795291325691e-03 0.0000000000000000e+00  1.0250640590003404e-04 -3.6295546990755523e-03 0.0000000000000000e+00  1.1133041295013525e-04 -2.4754623302521051e-03 0.0000000000000000e+00  -1.3398274910679438e-04 -5.5770545356490595e-03 0.0000000000000000e+00  -1.3924201036189329e-04 -5.2891318424455455e-03 0.0000000000000000e+00  9.6334847443427148e-05 -4.1120931324745121e-03 0.0000000000000000e+00  -1.1397804819827462e-05 -1.2863205116375623e-05 0.0000000000000000e+00  9.1173402847025011e-06 -1.0207268028363082e-05 0.0000000000000000e+00  8.2542014104326983e-05 -4.8811352211854927e-03 0.0000000000000000e+00  -1.4388525418280613e-04 -2.9448425657380771e-03 0.0000000000000000e+00  -1.3323821670085487e-04 -1.8246949026236364e-03 0.0000000000000000e+00  -6.3699024390484479e-05 -2.9729101417293717e-04 0.0000000000000000e+00  -7.7220784091409147e-05 -4.8526108991306800e-04 0.0000000000000000e+00  9.2471629582076037e-05 -4.5743051264578016e-03 0.0000000000000000e+00  -1.3911545799791296e-04 -2.1317377858524511e-03 0.0000000000000000e+00  -1.5194454878830814e-04 -3.2839596767176970e-03 0.0000000000000000e+00  -1.0794672951480826e-04 -1.1056735284328755e-03 0.0000000000000000e+00  4.9096016013685738e-05 -7.8226291349479636e-03 0.0000000000000000e+00  -9.5337118695427834e-05 -7.8285723398727677e-03 0.0000000000000000e+00  9.9127264826893394e-05 -1.0967501447376802e-03 0.0000000000000000e+00  -4.8122469953901841e-05 -1.4781254423519956e-04 0.0000000000000000e+00  6.7785747602945590e-05 -8.2861486606094024e-03 0.0000000000000000e+00  -1.6359902171984974e-04 -4.8756517077583137e-03 0.0000000000000000e+00  -1.5471934176612595e-04 -4.5627732290245762e-03 0.0000000000000000e+00  1.3882535589127210e-04 -1.8161954209450369e-03 0.0000000000000000e+00  7.5176361398998035e-05 -2.9211663032600746e-04 0.0000000000000000e+00  9.3991241124350563e-05 -4.9078599323949899e-04 0.0000000000000000e+00  1.3081551564847002e-04 -2.9519952921562764e-03 0.0000000000000000e+00  1.5307616531105221e-04 -2.1275964388450756e-03 0.0000000000000000e+00  1.4925173543481243e-04 -3.2784632011970383e-03 0.0000000000000000e+00  -3.1113891501743472e-05 -7.9918692452621856e-05 0.0000000000000000e+00  5.5797524552045661e-05 -8.4153595663133181e-03 0.0000000000000000e+00  -1.1185350775106132e-04 -7.2488985567010361e-03 0.0000000000000000e+00  -1.1774747397666758e-04 -6.9479678078878905e-03 0.0000000000000000e+00  1.0379946920821190e-04 -8.5167501273213564e-04 0.0000000000000000e+00  -1.2461453923450603e-04 -6.6295991804720504e-03 0.0000000000000000e+00  5.9944565226060415e-05 -7.9984616627640625e-03 0.0000000000000000e+00  -1.3217442999558998e-04 -6.2901732182273993e-03 0.0000000000000000e+00  -1.4020207894213367e-04 -5.9280051274243871e-03 0.0000000000000000e+00  1.2669836664677082e-04 -2.6695165636500965e-03 0.0000000000000000e+00  -1.4456349220238506e-04 -5.7306261988855850e-03 0.0000000000000000e+00  1.1602528118175284e-04 -3.8206376695588545e-03 0.0000000000000000e+00  -1.5504447166304986e-04 -5.1228972148965645e-03 0.0000000000000000e+00  1.0909245767962364e-04 -4.2967639750342984e-03 0.0000000000000000e+00  -9.8904273239599390e-05 -8.2723316539268007e-03 0.0000000000000000e+00  6.1604634099365167e-05 -7.6730308306549675e-03 0.0000000000000000e+00  -1.3324694958292261e-04 -1.3306935009400368e-03 0.0000000000000000e+00  5.8787472357350199e-05 -1.5884660445204064e-04 0.0000000000000000e+00  3.1561952211694658e-05 -6.4262081002629208e-05 0.0000000000000000e+00  9.6646777260860474e-05 -5.5073093206549160e-03 0.0000000000000000e+00  -1.6805487069697283e-04 -4.3267640893354473e-03 0.0000000000000000e+00  8.8976778943591767e-05 -5.8980718572917762e-03 0.0000000000000000e+00  6.9656059246667006e-05 -6.9233177663280757e-03 0.0000000000000000e+00  7.9834067899473934e-05 -6.2626228794348364e-03 0.0000000000000000e+00  7.4177716107566683e-05 -6.6035910549162085e-03 0.0000000000000000e+00  -1.4967904674238931e-04 -3.8626019202484311e-03 0.0000000000000000e+00  9.9623355717065888e-05 -5.0939720822733891e-03 0.0000000000000000e+00  -1.6327374885925216e-04 -2.7018392419967127e-03 0.0000000000000000e+00  -1.7572532321514901e-04 -3.5415400308078768e-03 0.0000000000000000e+00  6.6967766703748230e-05 -7.4127925396548855e-03 0.0000000000000000e+00  -1.6609524187020258e-04 -2.3869292726128436e-03 0.0000000000000000e+00  5.2423395628545193e-05 -7.2219157735775221e-03 0.0000000000000000e+00  -1.1350832280015284e-04 -8.7487790055498305e-04 0.0000000000000000e+00  -1.0493115233342683e-04 -6.4599527503151353e-04 0.0000000000000000e+00  -1.0246491258032306e-04 -8.1467405330602361e-03 0.0000000000000000e+00  -1.0757390394567022e-04 -7.9778555505104886e-03 0.0000000000000000e+00  4.9570876994592183e-05 -6.8210441537847081e-03 0.0000000000000000e+00  5.3111614099323788e-05 -6.4947489468000731e-03 0.0000000000000000e+00  6.9581253419025277e-05 -5.7681446415322156e-03 0.0000000000000000e+00  5.1892414799485210e-05 -7.1253388479491945e-03 0.0000000000000000e+00  5.7556953315506901e-05 -6.1461878161513687e-03 0.0000000000000000e+00  7.8240963610735391e-05 -5.3686053483885700e-03 0.0000000000000000e+00  -1.4761492755330997e-04 -4.0192014257460894e-03 0.0000000000000000e+00  1.2748589572396244e-04 -1.3037317608925094e-03 0.0000000000000000e+00  -1.1164318820996804e-04 -7.6926571524373859e-03 0.0000000000000000e+00  -1.1137168796095445e-04 -7.5147361730522411e-03 0.0000000000000000e+00  1.2974918357718619e-04 -1.5871529478964455e-03 0.0000000000000000e+00  -1.39068189