<?xml version="1.0"?>
<VTKFile type="UnstructuredGrid"  version="0.1"  >
<UnstructuredGrid>
<Piece  NumberOfPoints="439" NumberOfCells="725">
<Points>
<DataArray  type="Float64"  NumberOfComponents="3"  format="ascii">0.5999628397702974 0.1856021206923617 0  0.6000375539797715 0.2056022916261817 0  0.2489897949 0.21 0  0.2489897949 0.19 0  0.6000001953399728 0.1956021871297978 0  0.2496355385699469 0.2060260530378829 0  0.249959460510575 0.2020130349814059 0  0.2499594605105767 0.1979869650186357 0  0.24963553856995 0.1939739469621422 0  0.2539539944881164 0.2099811556079238 0  0.2589188361848058 0.2099611652336212 0  0.2638828783016008 0.2099362959203499 0  0.2688450856595794 0.209897267445993 0  0.2738054689031732 0.2098512948252263 0  0.2787657712595307 0.2097952988279526 0  0.2837237814538266 0.209734816211148 0  0.2886796679354349 0.2096660985333459 0  0.2936349830844532 0.2095914653492258 0  0.2985888419841821 0.2095113172672468 0  0.3035425716162363 0.2094244297151707 0  0.3084956320037349 0.2093367136616488 0  0.3134463629094971 0.2092420930872099 0  0.3183977265315164 0.2091445833959783 0  0.3233467492671884 0.2090443250741408 0  0.328295303277922 0.2089409639809574 0  0.3332427923932464 0.2088359307138115 0  0.3381893685642792 0.2087285078694104 0  0.3431350379260361 0.2086206712012524 0  0.3480799586615209 0.2085116248609196 0  0.3530241477961061 0.2084020861941991 0  0.3579676833798049 0.2082926165058787 0  0.3629103995128427 0.2081836420512151 0  0.3678525688997148 0.2080750115099276 0  0.3727941414145388 0.2079674589358296 0  0.3777353890789638 0.207861034394228 0  0.3826760157042245 0.2077562428659855 0  0.3876162852244497 0.2076529852269248 0  0.3925563747661454 0.207551709685101 0  0.3974954772013737 0.2074537841667649 0  0.4024341794377125 0.2073563479430408 0  0.4073732350091563 0.2072626482182406 0  0.4123115448163535 0.2071724606353106 0  0.4172495744005383 0.2070832086617299 0  0.4221880234087526 0.2069984329683833 0  0.4271253151867291 0.2069159261041611 0  0.4320634781605122 0.2068368802583211 0  0.4370003833506507 0.2067613308660762 0  0.4419382731225439 0.2066884559386643 0  0.4468761909948805 0.2066193906865082 0  0.4518136857489943 0.2065531268973701 0  0.4567509393943759 0.2064902326001766 0  0.4616890008297387 0.2064306771129843 0  0.4666266338616395 0.2063739488993716 0  0.4715642005287831 0.2063205697197741 0  0.4765025890862841 0.2062703545987142 0  0.4814407938317746 0.2062227719635749 0  0.4863790109605443 0.2061782712638599 0  0.4913180106947819 0.2061364468323805 0  0.4962569321846478 0.20609694477829 0  0.5011959403815808 0.2060600931676683 0  0.5061356797128188 0.2060255356860049 0  0.5110754307392356 0.2059928936021493 0  0.5160153507237367 0.2059624357969103 0  0.5209559409140364 0.2059337926062338 0  0.5258965320164799 0.2059066754873505 0  0.5308373683049615 0.2058812007939967 0  0.5357786392028423 0.2058570786961341 0  0.5407203431173206 0.2058339841504793 0  0.5456624299451207 0.2058121208155708 0  0.5506046674468358 0.2057912757856486 0  0.5555470277761037 0.2057706116438828 0  0.5604897918803876 0.2057509680606072 0  0.5654325753108976 0.2057317136440715 0  0.5703757261467433 0.2057127909733693 0  0.575319073524744 0.2056942613382483 0  0.5802625419843915 0.2056757638565882 0  0.5852061921147662 0.2056574083777116 0  0.5901499263625353 0.2056391025720145 0  0.5950937188922792 0.2056207012629755 0  0.5950189809603411 0.1856205580760747 0  0.590075069650305 0.1856389537216914 0  0.5851311077371043 0.185657284518023 0  0.5801870245129653 0.1856756382600896 0  0.5752428116060573 0.1856941150036422 0  0.5702984554978283 0.185712657185534 0  0.5653538777309526 0.1857315680604725 0  0.5604089506085422 0.1857508368759074 0  0.5554639686182824 0.1857704742442147 0  0.550518618411559 0.1857909206826602 0  0.5455730284354517 0.1858118347821178 0  0.5406273321933155 0.1858338592037814 0  0.5356811315024098 0.1858572142089078 0  0.5307345945859133 0.1858808674772933 0  0.5257880168712182 0.1859064039479421 0  0.5208407801260633 0.1859339336923065 0  0.5158931889144149 0.1859619458381731 0  0.5109457529189653 0.1859925714778977 0  0.5059975560966418 0.1860257168920776 0  0.5010489781496367 0.1860594848466521 0  0.496100715230248 0.1860965570897244 0  0.4911516290945743 0.1861366805650236 0  0.4862021584134265 0.1861775540577129 0  0.4812531820003688 0.1862223381519786 0  0.4763033419469556 0.1862706678277964 0  0.4713531619781274 0.1863202018102685 0  0.466403252884897 0.1863735500759749 0  0.4614526960317937 0.1864309835813508 0  0.4565021685368216 0.1864893235622044 0  0.4515525788420997 0.1865522471746584 0  0.4466018058171842 0.1866196798553791 0  0.4416508466034474 0.1866880361407582 0  0.4367003731622782 0.1867612597840854 0  0.4317503290492756 0.1868366507382437 0  0.4268002818988476 0.1869156185252502 0  0.4218506320570995 0.1869984631059036 0  0.4169004631218725 0.1870833808594242 0  0.4119508564320073 0.1871718715691409 0  0.4070011152143832 0.1872629655207369 0  0.4020515786140015 0.1873570116822015 0  0.3971026711672302 0.1874537824855814 0  0.3921546454730751 0.187552609793449 0  0.387207042232682 0.1876539373510754 0  0.3822590708570973 0.1877569595982242 0  0.377312372265152 0.1878618797287376 0  0.3723658105220956 0.1879686185760447 0  0.3674201893131518 0.188076303634029 0  0.3624750394102115 0.1881849611916934 0  0.3575306997244522 0.1882942235439412 0  0.3525870235141696 0.1884038189252152 0  0.3476440996006421 0.188513584944326 0  0.3427018924311979 0.1886226326229403 0  0.3377610052300767 0.188730983246698 0  0.3328203249417202 0.1888380331158504 0  0.3278809077255458 0.1889425725370559 0  0.3229423012792956 0.1890463693223601 0  0.3180043777922366 0.1891467021010889 0  0.3130688161242531 0.1892442044939703 0  0.3081326798180312 0.1893383737362123 0  0.3031981053109508 0.1894272663586595 0  0.2982640006661809 0.1895129059922772 0  0.2933307893431077 0.1895925320832116 0  0.2884004447364198 0.1896679006958656 0  0.2834688173324535 0.1897363469073494 0  0.278540955210641 0.1897985094504423 0  0.2736122292480634 0.1898514106922325 0  0.2686872323699754 0.1898966818702452 0  0.2637613869953556 0.1899355161041247 0  0.258836390205929 0.189963875439214 0  0.2539127186716802 0.1899801493211811 0  0.5999815011240157 0.1906021537459904 0  0.6000188967218302 0.200602236872687 0  0.2589760149701386 0.2005302176012716 0  0.5431459214091523 0.1958216008658826 0  0.5682395749035682 0.1956906935384388 0  0.2774593099680018 0.2006162213853176 0  0.5138480830789367 0.1958747914467117 0  0.5286798457792873 0.1957921493954983 0  0.2944996912635527 0.1988753383920484 0  0.5827763895802592 0.1952090405636973 0  0.3104111009458431 0.1992738785655595 0  0.3370144540147585 0.1995824548706581 0  0.4990161882177571 0.1959744855477639 0  0.3552774360706893 0.1983481910006851 0  0.4841841890610393 0.1960953201855727 0  0.3707329663649916 0.198020774185979 0  0.3898833103467728 0.1976000632136169 0  0.4689785646316225 0.1958840611404574 0  0.4541548159997445 0.1965170198389419 0  0.4043506090476445 0.1974105206155006 0  0.419546869086202 0.1970362328467415 0  0.4386982549209512 0.1967145129593971 0  0.3202454759010063 0.1991178099762673 0  0.5584050918120217 0.1957492056456938 0  0.428060117922124 0.1967427565725487 0  0.34676539277741 0.1986887236576123 0  0.3813709502545216 0.1979286369413538 0  0.2860680999129557 0.1997505615556645 0  0.5911159245009566 0.1938801032862736 0  0.2680012931733977 0.2015912293218075 0  0.4615974095351376 0.1986767841197987 0  0.491253607136527 0.198383427720783 0  0.506082260461057 0.1982730535174864 0  0.3972551343236614 0.1952001777378341 0  0.4764253423984277 0.1985168469224835 0  0.5209114243668485 0.1981819198084924 0  0.4467698497933767 0.1988654528811696 0  0.5357411257620067 0.1981058666491648 0  0.412090362804835 0.1949179181861195 0  0.3626441308304636 0.1959333821804894 0  0.3033325898842685 0.1971823000302495 0  0.5752722851193515 0.1934434711478342 0  0.5504471081202569 0.1929188550693652 0  0.3282490844383093 0.2018139593020361 0  0.5484344781564304 0.199639503025209 0  0.3301522770660865 0.1950589808036462 0  0.537901876220869 0.1919705137187919 0  0.5230668681275875 0.1920446853644413 0  0.5082307997634805 0.1921333469917428 0  0.577486350391116 0.1995605740549575 0  0.3012455764058435 0.2033450378775521 0  0.4785554885102472 0.1923705342723461 0  0.4933936417223679 0.1922406403650166 0  0.3951849126930593 0.2013690682427796 0  0.3605864076913139 0.2021065928776418 0  0.4593337950256992 0.1925779542209325 0  0.4488769606125009 0.1927107132389068 0  0.4100106522634395 0.201083372327764 0  0.2557776521686896 0.1960752780712903 0  0.2550216358733766 0.2034342344766517 0  0.4348573084427228 0.2005620227024634 0  0.3745512836231048 0.1941485466313932 0  0.3405375501631591 0.194720509104323 0  0.281253053136047 0.1958201957526751 0  0.2912121980731598 0.1957152551577242 0  0.4247319032584804 0.2009038426654338 0  0.3500723241326165 0.1945092832681225 0  0.3846822981293777 0.1937532197633991 0  0.3165567023171654 0.1953408939451676 0  0.5621700166073941 0.1995252593124718 0  0.5624254969410954 0.1918186483128282 0  0.3163118714998449 0.2030564302773184 0  0.2710527214032999 0.1958555587047514 0  0.5873192756958506 0.2003722051415556 0  0.4345950235530337 0.1922558081615612 0  0.424257124376376 0.192831488361595 0  0.3403553189092951 0.2034748460904574 0  0.2809244071097823 0.2045517961875867 0  0.2914770965295806 0.2044108869305217 0  0.3748628936228041 0.2024539309177445 0  0.3500301627870303 0.2036422321617613 0  0.3846302240758122 0.2028870263219259 0  0.2647910547163147 0.1961465972069759 0  0.5943400374521709 0.1996648976520896 0  0.5320745362199765 0.1915177029243369 0  0.5172387820758028 0.1915971362830412 0  0.307068278953476 0.2037124080468344 0  0.5024017756311909 0.1916926676851218 0  0.5716770939160616 0.2000542961651136 0  0.4875635778678231 0.1918084184148547 0  0.472767847056245 0.1919433839377571 0  0.3664198726969065 0.2024707
[...]
<PointData  Vectors="f_20-1"> 
<DataArray  type="Float64"  Name="f_20-1"  NumberOfComponents="3" format="ascii">-3.7160229702586253e-05 -4.3978793076383058e-03 0.0000000000000000e+00  3.7553979771634448e-05 -4.3977083738182638e-03 0.0000000000000000e+00  0.0000000000000000e+00 0.0000000000000000e+00 0.0000000000000000e+00  0.0000000000000000e+00 0.0000000000000000e+00 0.0000000000000000e+00  1.9533997293793166e-07 -4.3978128702021847e-03 0.0000000000000000e+00  0.0000000000000000e+00 0.0000000000000000e+00 0.0000000000000000e+00  0.0000000000000000e+00 0.0000000000000000e+00 0.0000000000000000e+00  0.0000000000000000e+00 0.0000000000000000e+00 0.0000000000000000e+00  0.0000000000000000e+00 0.0000000000000000e+00 0.0000000000000000e+00  2.0393882487102714e-05 -1.8844392076205860e-05 0.0000000000000000e+00  4.1429873551530752e-05 -3.8834766378807740e-05 0.0000000000000000e+00  6.1666284708699937e-05 -6.3704079650118937e-05 0.0000000000000000e+00  8.0067937049447006e-05 -1.0273255400698179e-04 0.0000000000000000e+00  9.6645475016310744e-05 -1.4870517477370550e-04 0.0000000000000000e+00  1.1314212575540005e-04 -2.0470117204735038e-04 0.0000000000000000e+00  1.2734661443285098e-04 -2.6518378885197658e-04 0.0000000000000000e+00  1.3942739041829274e-04 -3.3390146665409883e-04 0.0000000000000000e+00  1.5093683380103229e-04 -4.0853465077417218e-04 0.0000000000000000e+00  1.6099002791128479e-04 -4.8868273275315768e-04 0.0000000000000000e+00  1.7091395433654679e-04 -5.7557028482927157e-04 0.0000000000000000e+00  1.8016863621682469e-04 -6.6328633835119138e-04 0.0000000000000000e+00  1.8709383636058519e-04 -7.5790691279004670e-04 0.0000000000000000e+00  1.9465175276143858e-04 -8.5541660402173032e-04 0.0000000000000000e+00  1.9986878281520306e-04 -9.5567492585924615e-04 0.0000000000000000e+00  2.0461708793032663e-04 -1.0590360190426448e-03 0.0000000000000000e+00  2.0830049762567241e-04 -1.1640692861885024e-03 0.0000000000000000e+00  2.1107096305085344e-04 -1.2714921305896165e-03 0.0000000000000000e+00  2.1293461917853282e-04 -1.3793287987475529e-03 0.0000000000000000e+00  2.1404964904493676e-04 -1.4883751390803905e-03 0.0000000000000000e+00  2.1443307801168171e-04 -1.5979138058009581e-03 0.0000000000000000e+00  2.1416295609213740e-04 -1.7073834941212594e-03 0.0000000000000000e+00  2.1307338351159776e-04 -1.8163579487848441e-03 0.0000000000000000e+00  2.1143706476530003e-04 -1.9249884900723714e-03 0.0000000000000000e+00  2.0920387396000927e-04 -2.0325410641704117e-03 0.0000000000000000e+00  2.0664583277608758e-04 -2.1389656057720164e-03 0.0000000000000000e+00  2.0346675241252824e-04 -2.2437571340145407e-03 0.0000000000000000e+00  1.9993056701592452e-04 -2.3470147730751643e-03 0.0000000000000000e+00  1.9621440308229248e-04 -2.4482903148989811e-03 0.0000000000000000e+00  1.9151113270311952e-04 -2.5462158332351268e-03 0.0000000000000000e+00  1.8640766341400405e-04 -2.6436520569591841e-03 0.0000000000000000e+00  1.8165752924564115e-04 -2.7373517817593450e-03 0.0000000000000000e+00  1.7616163082240132e-04 -2.8275393646894150e-03 0.0000000000000000e+00  1.7038550938653599e-04 -2.9167913382700801e-03 0.0000000000000000e+00  1.6502881198891649e-04 -3.0015670316166938e-03 0.0000000000000000e+00  1.5851488433729586e-04 -3.0840738958388967e-03 0.0000000000000000e+00  1.5287215248691664e-04 -3.1631197416788479e-03 0.0000000000000000e+00  1.4597163697342559e-04 -3.2386691339237892e-03 0.0000000000000000e+00  1.4005570321094842e-04 -3.3115440613356627e-03 0.0000000000000000e+00  1.3416786988375742e-04 -3.3806093134918047e-03 0.0000000000000000e+00  1.2785691834986485e-04 -3.4468731026299285e-03 0.0000000000000000e+00  1.2130485808951854e-04 -3.5097673998234070e-03 0.0000000000000000e+00  1.1556058782271100e-04 -3.5693228870157332e-03 0.0000000000000000e+00  1.0938791407299690e-04 -3.6260511006284499e-03 0.0000000000000000e+00  1.0314887558339292e-04 -3.6794302802259145e-03 0.0000000000000000e+00  9.7731727417304224e-05 -3.7296454012858329e-03 0.0000000000000000e+00  9.2130767261235205e-05 -3.7772280364251204e-03 0.0000000000000000e+00  8.6542190368205844e-05 -3.8217287361401371e-03 0.0000000000000000e+00  8.1736218975249586e-05 -3.8635531676195246e-03 0.0000000000000000e+00  7.6852003186757108e-05 -3.9030552217099602e-03 0.0000000000000000e+00  7.2054494491071637e-05 -3.9399068323316896e-03 0.0000000000000000e+00  6.7988120069437574e-05 -3.9744643139950544e-03 0.0000000000000000e+00  6.3933440848300233e-05 -4.0071063978506672e-03 0.0000000000000000e+00  6.0047719733140914e-05 -4.0375642030896471e-03 0.0000000000000000e+00  5.6832204394974877e-05 -4.0662073937661409e-03 0.0000000000000000e+00  5.3617601179772940e-05 -4.0933245126494782e-03 0.0000000000000000e+00  5.0648184022472574e-05 -4.1187992060033162e-03 0.0000000000000000e+00  4.8113376243633313e-05 -4.1429213038658682e-03 0.0000000000000000e+00  4.6011585084005235e-05 -4.1660158495207388e-03 0.0000000000000000e+00  4.4292707267865052e-05 -4.1878791844291241e-03 0.0000000000000000e+00  4.2724503344973123e-05 -4.2087242143514373e-03 0.0000000000000000e+00  4.1279126958091069e-05 -4.2293883561171754e-03 0.0000000000000000e+00  4.0237525599195156e-05 -4.2490319393927939e-03 0.0000000000000000e+00  3.9215250449625661e-05 -4.2682863559284721e-03 0.0000000000000000e+00  3.8560380631547924e-05 -4.2872090266306423e-03 0.0000000000000000e+00  3.8102052998047705e-05 -4.3057386617517141e-03 0.0000000000000000e+00  3.7764807008060549e-05 -4.3242361434117551e-03 0.0000000000000000e+00  3.7609231732193796e-05 -4.3425916222883656e-03 0.0000000000000000e+00  3.7537773854287599e-05 -4.3608974279855115e-03 0.0000000000000000e+00  3.7524597938768569e-05 -4.3792987370244538e-03 0.0000000000000000e+00  -3.7213334042199715e-05 -4.3794419239252961e-03 0.0000000000000000e+00  -3.7318938453052286e-05 -4.3610462783085970e-03 0.0000000000000000e+00  -3.7475146015071564e-05 -4.3427154819770239e-03 0.0000000000000000e+00  -3.7752664507383025e-05 -4.3243617399104485e-03 0.0000000000000000e+00  -3.8159865794132512e-05 -4.3058849963578160e-03 0.0000000000000000e+00  -3.8710268402500875e-05 -4.2873428144660540e-03 0.0000000000000000e+00  -3.9482329665496269e-05 -4.2684319395274971e-03 0.0000000000000000e+00  -4.0603746446698103e-05 -4.2491631240926097e-03 0.0000000000000000e+00  -4.1780031075643133e-05 -4.2295257557852994e-03 0.0000000000000000e+00  -4.3324532144380035e-05 -4.2090793173397908e-03 0.0000000000000000e+00  -4.5108802652499637e-05 -4.1881652178821947e-03 0.0000000000000000e+00  -4.6999339189403895e-05 -4.1661407962186254e-03 0.0000000000000000e+00  -4.9394324486238404e-05 -4.1427857910921956e-03 0.0000000000000000e+00  -5.2125535349727615e-05 -4.1191325227066750e-03 0.0000000000000000e+00  -5.4897544444568828e-05 -4.0935960520579453e-03 0.0000000000000000e+00  -5.8328583961096995e-05 -4.0660663076935496e-03 0.0000000000000000e+00  -6.2114090006865658e-05 -4.0380541618268906e-03 0.0000000000000000e+00  -6.5744379857305305e-05 -4.0074285221023331e-03 0.0000000000000000e+00  -7.0135496576027495e-05 -3.9742831079223372e-03 0.0000000000000000e+00  -7.4907737943897266e-05 -3.9405151533479284e-03 0.0000000000000000e+00  -7.9364951724017704e-05 -3.9034429102756413e-03 0.0000000000000000e+00  -8.4645381778777917e-05 -3.8633194349763683e-03 0.0000000000000000e+00  -9.0310357307769941e-05 -3.8224459422871722e-03 0.0000000000000000e+00  -9.5481064735871045e-05 -3.7776618480214238e-03 0.0000000000000000e+00  -1.0151541254105907e-04 -3.7293321722035619e-03 0.0000000000000000e+00  -1.0788967574087773e-04 -3.6797981897315566e-03 0.0000000000000000e+00  -1.1399306335851881e-04 -3.6264499240250630e-03 0.0000000000000000e+00  -1.2074421084115956e-04 -3.5690164186492515e-03 0.0000000000000000e+00  -1.2746600018872839e-04 -3.5106764377955870e-03 0.0000000000000000e+00  -1.3324998928112783e-04 -3.4477528253416471e-03 0.0000000000000000e+00  -1.4021730858739732e-04 -3.3803201446209207e-03 0.0000000000000000e+00  -1.4737081669919440e-04 -3.3119638592418363e-03 0.0000000000000000e+00  -1.5403855225152997e-04 -3.2387402159145466e-03 0.0000000000000000e+00  -1.6027695963748384e-04 -3.1633492617563499e-03 0.0000000000000000e+00  -1.6651840443897159e-04 -3.0843814747498208e-03 0.0000000000000000e+00  -1.7236254054864910e-04 -3.0015368940963971e-03 0.0000000000000000e+00  -1.7872577013315906e-04 -2.9166191405757651e-03 0.0000000000000000e+00  -1.8452675435212939e-04 -2.8281284308590447e-03 0.0000000000000000e+00  -1.9046226631628529e-04 -2.7370344792630595e-03 0.0000000000000000e+00  -1.9619316104624291e-04 -2.6429883177985763e-03 0.0000000000000000e+00  -2.0129490215992543e-04 -2.5462175144186161e-03 0.0000000000000000e+00  -2.0551489067973603e-04 -2.4473902065510278e-03 0.0000000000000000e+00  -2.0931242542622942e-04 -2.3460626489245737e-03 0.0000000000000000e+00  -2.1347809538515132e-04 -2.2430404017757836e-03 0.0000000000000000e+00  -2.1637098167380606e-04 -2.1381202712624620e-03 0.0000000000000000e+00  -2.1912701908162113e-04 -2.0313814239552573e-03 0.0000000000000000e+00  -2.2094252235669741e-04 -1.9236963659710264e-03 0.0000000000000000e+00  -2.2228671964989144e-04 -1.8150388083066050e-03 0.0000000000000000e+00  -2.2282069975864004e-04 -1.7057764560587528e-03 0.0000000000000000e+00  -2.2269120441941638e-04 -1.5961810747848564e-03 0.0000000000000000e+00  -2.2180941228894089e-04 -1.4864150556739687e-03 0.0000000000000000e+00  -2.2021087609411138e-04 -1.3773673770596728e-03 0.0000000000000000e+00  -2.1729237157682108e-04 -1.2690167533020303e-03 0.0000000000000000e+00  -2.1416695429501384e-04 -1.1619668841495805e-03 0.0000000000000000e+00  -2.0977846482929534e-04 -1.0574274629440799e-03 0.0000000000000000e+00  -2.0457920542158925e-04 -9.5363067763989712e-04 0.0000000000000000e+00  -1.9869698682262169e-04 -8.5329789891112841e-04 0.0000000000000000e+00  -1.9045294914806833e-04 -7.5579550602973425e-04 0.0000000000000000e+00  -1.8278354972692745e-04 -6.6162626378766783e-04 0.0000000000000000e+00  -1.7355235116896277e-04 -5.7273364134053728e-04 0.0000000000000000e+00  -1.6385129030037181e-04 -4.8709400772274414e-04 0.0000000000000000e+00  -1.5325690773516793e-04 -4.0746791678835124e-04 0.0000000000000000e+00  -1.3979580876760002e-04 -3.3209930413436795e-04 0.0000000000000000e+00  -1.2761750707598716e-04 -2.6365309265064782e-04 0.0000000000000000e+00  -1.1167392323064242e-04 -2.0149054955771270e-04 0.0000000000000000e+00  -9.6594180160938648e-05 -1.4858930776753530e-04 0.0000000000000000e+00  -7.7785352610571927e-05 -1.0331812975479173e-04 0.0000000000000000e+00  -5.9825021591933737e-05 -6.4483895875280331e-05 0.0000000000000000e+00  -4.1016105380266045e-05 -3.6124560785960618e-05 0.0000000000000000e+00  -2.0881933977670220e-05 -1.9850678818942254e-05 0.0000000000000000e+00  -1.8498875984242468e-05 -4.3978462539878641e-03 0.0000000000000000e+00  1.8896721830317330e-05 -4.3977631272859204e-03 0.0000000000000000e+00  2.5884384892760216e-06 -2.2171741568725265e-05 0.0000000000000000e+00  -3.1297615536886428e-07 -4.1783991340863932e-03 0.0000000000000000e+00  -2.1457324799658619e-07 -4.2797650424599258e-03 0.0000000000000000e+00  7.9172561993591068e-06 -1.7797055687505790e-04 0.0000000000000000e+00  -1.5002979602572319e-06 -4.0275512023802010e-03 0.0000000000000000e+00  -1.1547144508443892e-06 -4.1101932535986072e-03 0.0000000000000000e+00  -1.1203942211905474e-05 -4.1585244849018697e-04 0.0000000000000000e+00  -1.6935582333689893e-06 -4.3339395366376165e-03 0.0000000000000000e+00  -1.7387110825061237e-06 -6.9658001533829588e-04 0.0000000000000000e+00  1.4278472903417319e-05 -1.2470063727385897e-03 0.0000000000000000e+00  -1.9780422888120687e-06 -3.9278571013263092e-03 0.0000000000000000e+00  -4.1815002150288577e-06 -1.6518089993757179e-03 0.0000000000000000e+00  -2.5600821532607780e-06 -3.8070224635122396e-03 0.0000000000000000e+00  -4.4050255634369155e-06 -1.9934635093899304e-03 0.0000000000000000e+00  -4.9471634767810202e-06 -2.3999367864659146e-03 0.0000000000000000e+00  -7.1904176509463993e-06 -3.6576112852120340e-03 0.0000000000000000e+00  -2.9156844521865605e-06 -3.4829801609679006e-03 0.0000000000000000e+00  -2.8823541886471052e-06 -2.6871367354238504e-03 0.0000000000000000e+00  -4.2226577548597013e-06 -2.9637671533642019e-03 0.0000000000000000e+00  -3.7229435000721149e-06 -3.2712493452800753e-03 0.0000000000000000e+00  -1.7991246639639170e-06 -8.9107423837256230e-04 0.0000000000000000e+00  -2.6229606335543564e-07 -4.2419101396638740e-03 0.0000000000000000e+00  -6.5967665894269757e-06 -3.1061482482754033e-03 0.0000000000000000e+00  -6.0184913744060753e-07 -1.4623715218251858e-03 0.0000000000000000e+00  -1.6843113691895723e-06 -2.2224582380981918e-03 0.0000000000000000e+00  -2.3777925405098084e-07 -2.9098301495372514e-04 0.0000000000000000e+00  -6.4566771628106371e-06 -4.3648126486008042e-03 0.0000000000000000e+00  1.1977027534982956e-05 -8.3896324921512382e-05 0.0000000000000000e+00  2.3969292509807517e-05 -3.5735792090015807e-03 0.0000000000000000e+00  1.7332660181697425e-05 -3.8669356080260758e-03 0.0000000000000000e+00  1.4568867858622664e-05 -3.9773098113254279e-03 0.0000000000000000e+00  -4.8831745015979966e-05 -2.5494589333623511e-03 0.0000000000000000e+00  2.0485038938065491e-05 -3.7335164063216262e-03 0.0000000000000000e+00  1.2315656802974306e-05 -4.0684435203259713e-03 0.0000000000000000e+00  2.7826667611069188e-05 -3.3849104476303773e-03 0.0000000000000000e+00  1.0599935121930997e-05 -4.1444966796550242e-03 0.0000000000000000e+00  -4.5020380696654355e-05 -2.8317184850780953e-03 0.0000000000000000e+00  -5.3195298871640640e-05 -1.8162544907025545e-03 0.0000000000000000e+00  -3.9067777627608713e-05 -5.6733664093738638e-04 0.0000000000000000e+00  -8.6863524714568604e-06 -4.3061655233160735e-03 0.0000000000000000e+00  -1.2747798799165802e-05 -4.2096234044015470e-03 0.0000000000000000e+00  5.6311223625215822e-05 -1.0575622242045780e-03 0.0000000000000000e+00  1.6576106684385473e-05 -4.2008185442672426e-03 0.0000000000000000e+00  -8.2450017912334578e-05 -1.1006976269028934e-03 0.0000000000000000e+00  -1.9209002942376274e-05 -4.1546679456191376e-03 0.0000000000000000e+00  -2.2799979377737122e-05 -4.0804962999644867e-03 0.0000000000000000e+00  -2.7451226641729437e-05 -3.9918346726669279e-03 0.0000000000000000e+00  1.4819522406501014e-05 -4.3142442806311954e-03 0.0000000000000000e+00  6.4478140888772452e-05 -5.2978045804157904e-04 0.0000000000000000e+00  -3.9928246163971857e-05 -3.7546473920578873e-03 0.0000000000000000e+00  -3.3192150899220423e-05 -3.8845412993897105e-03 0.0000000000000000e+00  7.1506021296319827e-05 -2.5057500928170272e-03 0.0000000000000000e+00  7.9640958902179018e-05 -1.7682254579532888e-03 0.0000000000000000e+00  -4.9085820015398447e-05 -3.5472274434668249e-03 0.0000000000000000e+00  -5.5621910179595526e-05 -3.4144684254939087e-03 0.0000000000000000e+00  6.5828474817566823e-05 -2.7914460078350867e-03 0.0000000000000000e+00  -8.6478115074496567e-06 -1.0558954439165827e-05 0.0000000000000000e+00  6.8998424366773356e-06 -8.4085224597667557e-06 0.0000000000000000e+00  5.4160796253938405e-05 -3.2117350616919886e-03 0.0000000000000000e+00  -8.4917985305140917e-05 -2.0776956044621232e-03 0.0000000000000000e+00  -8.8286423271321382e-05 -1.3262830896659944e-03 0.0000000000000000e+00  -4.7114982936320082e-05 -2.2659644137508546e-04 0.0000000000000000e+00  -5.6440670829526593e-05 -3.6637770720399516e-04 0.0000000000000000e+00  6.1369676491203402e-05 -3.0493651405205740e-03 0.0000000000000000e+00  -8.9851600296486447e-05 -1.5375089260652932e-03 0.0000000000000000e+00  -8.6517542891667777e-05 -2.2935724308367762e-03 0.0000000000000000e+00  -7.5666221190618451e-05 -8.1856461820239003e-04 0.0000000000000000e+00  1.5015502053219852e-05 -4.2563899474273520e-03 0.0000000000000000e+00  -1.5890760881527210e-05 -4.2575440483095337e-03 0.0000000000000000e+00  7.2367916532050132e-05 -8.1152546515079744e-04 0.0000000000000000e+00  -3.5992017462316373e-05 -1.1408562783242044e-04 0.0000000000000000e+00  1.7838055490296708e-05 -4.3505829615267042e-03 0.0000000000000000e+00  -7.2933091237159701e-05 -3.2093377936900603e-03 0.0000000000000000e+00  -7.2526031422591515e-05 -3.0442097323111874e-03 0.0000000000000000e+00  9.9367825942797580e-05 -1.3192039386349123e-03 0.0000000000000000e+00  5.5914433689006603e-05 -2.2244559367895435e-04 0.0000000000000000e+00  6.9393215708414731e-05 -3.7006477657380610e-04 0.0000000000000000e+00  9.1501012310826990e-05 -2.0809231271109300e-03 0.0000000000000000e+00  1.0851389714356813e-04 -1.5331091568691667e-03 0.0000000000000000e+00  1.0193524658240574e-04 -2.2883149967100735e-03 0.0000000000000000e+00  -2.3431829190490789e-05 -6.2377091661500956e-05 0.0000000000000000e+00  1.5273085881495394e-05 -4.3766447068285929e-03 0.0000000000000000e+00  -2.2724825637987430e-05 -4.1268069807502764e-03 0.0000000000000000e+00  -2.7061852969933411e-05 -4.0473736220441826e-03 0.0000000000000000e+00  7.5953393210177170e-05 -6.3439534042067445e-04 0.0000000000000000e+00  -3.2651180735634991e-05 -3.9518422199646313e-03 0.0000000000000000e+00  1.6790342626540248e-05 -4.2925072221624934e-03 0.0000000000000000e+00  -3.9431827250955057e-05 -3.8360914902284366e-03 0.0000000000000000e+00  -4.7350473381349879e-05 -3.6968629532323433e-03 0.0000000000000000e+00  8.9695044152671347e-05 -1.8967371785890180e-03 0.0000000000000000e+00  -5.2085901704024361e-05 -3.6144207214317335e-03 0.0000000000000000e+00  7.9127998169377831e-05 -2.6205189040084862e-03 0.0000000000000000e+00  -6.5041946312947331e-05 -3.3337935348148068e-03 0.0000000000000000e+00  7.2244240043098498e-05 -2.8962376990168291e-03 0.0000000000000000e+00  -1.6123142036453370e-05 -4.3477167402907113e-03 0.0000000000000000e+00  1.8487689420062926e-05 -4.2246551632069331e-03 0.0000000000000000e+00  -9.2090858523020830e-05 -9.7934902906001917e-04 0.0000000000000000e+00  4.4003609242736384e-05 -1.2232169815553929e-04 0.0000000000000000e+00  2.3750095936212931e-05 -5.0327855159490273e-05 0.0000000000000000e+00  5.5152130389451687e-05 -3.5153559446721330e-03 0.0000000000000000e+00  -8.3037160358675853e-05 -2.9140447516841960e-03 0.0000000000000000e+00  4.6975174062635606e-05 -3.6844767305233106e-03 0.0000000000000000e+00  2.7079054886790882e-05 -4.0405004091356670e-03 0.0000000000000000e+00  3.8694173724446137e-05 -3.8260211818290876e-03 0.0000000000000000e+00  3.2356497667785271e-05 -3.9435219398625378e-03 0.0000000000000000e+00  -7.8267572776271008e-05 -2.6467152742291103e-03 0.0000000000000000e+00  6.0910377216732390e-05 -3.3189205283121813e-03 0.0000000000000000e+00  -1.0019939262138757e-04 -1.9193302361977217e-03 0.0000000000000000e+00  -9.8144813632114795e-05 -2.4530256608985990e-03 0.0000000000000000e+00  2.1508522761290254e-05 -4.1663062688336453e-03 0.0000000000000000e+00  -1.0557097972096330e-04 -1.7100108179750526e-03 0.0000000000000000e+00  1.9421254569091988e-05 -4.1202889122506645e-03 0.0000000000000000e+00  -8.0925356022409743e-05 -6.5185009754494211e-04 0.0000000000000000e+00  -7.5936231099270010e-05 -4.8480649544171251e-04 0.0000000000000000e+00  -1.6888665568674144e-05 -4.3224348841025681e-03 0.0000000000000000e+00  -1.8192314355731836e-05 -4.2882218773313101e-03 0.0000000000000000e+00  2.2131348486141723e-05 -4.0110511821903746e-03 0.0000000000000000e+00  2.6442705423486299e-05 -3.9078544172711305e-03 0.0000000000000000e+00  4.0116495748040458e-05 -3.6303995581596204e-03 0.0000000000000000e+00  2.0046682326955429e-05 -4.0956295700912953e-03 0.0000000000000000e+00  3.1521597003383888e-05 -3.7828579238917285e-03 0.0000000000000000e+00  4.7812870281653209e-05 -3.4515120797778327e-03 0.0000000000000000e+00  -7.5258474036783327e-05 -2.7387438876778922e-03 0.0000000000000000e+00  9.2267455093041840e-05 -9.5929481300355106e-04 0.0000000000000000e+00  -1.9961231887224386e-05 -4.2287628333004274e-03 0.0000000000000000e+00  -2.0794926254301484e-05 -4.1896287109126767e-03 0.0000000000000000e+00  9.3490618675492362e-05 -1.1595087424384706e-03 0.0000000000000000e+00  -5.339496332