<?xml version="1.0"?>
<VTKFile type="UnstructuredGrid"  version="0.1"  >
<UnstructuredGrid>
<Piece  NumberOfPoints="439" NumberOfCells="725">
<Points>
<DataArray  type="Float64"  NumberOfComponents="3"  format="ascii">0.5851066809681178 0.1011494504620343 0  0.5919710610574148 0.1201221578394961 0  0.2489897949 0.21 0  0.2489897949 0.19 0  0.5885389381824239 0.110635825101963 0  0.2496355385699469 0.2060260530378829 0  0.249959460510575 0.2020130349814059 0  0.2499594605105767 0.1979869650186357 0  0.24963553856995 0.1939739469621422 0  0.254052915967403 0.2098956406140831 0  0.2591273889395284 0.2097818663689694 0  0.2642000939631837 0.2096369854963829 0  0.2692640104768749 0.2093956256766946 0  0.2743195294247348 0.2091020745592121 0  0.2793767739174119 0.2087346468983939 0  0.2844194076484996 0.2083290341125312 0  0.2894469283939445 0.2078561849726678 0  0.2944716483295443 0.2073303080003096 0  0.2994848520056358 0.2067516735130035 0  0.3044976153665127 0.2061019464160599 0  0.309508266534301 0.2054409203399593 0  0.3144948812254768 0.2047009697158472 0  0.3194930874379968 0.203917803596376 0  0.3244644079866561 0.2030966918741799 0  0.3294323276211716 0.2022181469529489 0  0.3343898495973028 0.2013070562673 0  0.3393351446208856 0.2003404661489568 0  0.3442683069985104 0.1993513273891358 0  0.3491928729984942 0.1983147897142037 0  0.3541062168369269 0.1972457197661599 0  0.3590075896649811 0.1961445350691325 0  0.3639052667597801 0.1949900525588562 0  0.3688013420971208 0.193827884370405 0  0.3736801217497756 0.1926185727861004 0  0.3785492654974612 0.1913898226580255 0  0.3834099760067066 0.190125615960469 0  0.3882614236903114 0.188836025317602 0  0.3931020661578931 0.1875224216327059 0  0.3979381539115355 0.1861688017656017 0  0.4027728841982168 0.1848114340656454 0  0.4075894235725011 0.1834198660528293 0  0.4124013078580465 0.1820005858494448 0  0.4172110148912343 0.1805749997125382 0  0.4220054536934737 0.179119049941477 0  0.4268013972266492 0.1776474784416893 0  0.4315839268228823 0.176158220466352 0  0.4363658190022825 0.1746479378168275 0  0.4411372667757775 0.1731261944821925 0  0.4459020883734082 0.1715864366723374 0  0.4506639318406017 0.1700338913996968 0  0.4554210178425965 0.1684667342975533 0  0.4601699400839266 0.166886946144205 0  0.4649165379993354 0.1652962286740881 0  0.4696586267368842 0.1636929987353122 0  0.4743938490414339 0.1620793734813393 0  0.4791264504301785 0.160456931020238 0  0.4838552318120251 0.1588243419725385 0  0.4885786016156315 0.1571841010272192 0  0.4932997059021105 0.1555369522086555 0  0.4980176940669093 0.1538820228866283 0  0.5027313386262683 0.1522212219721759 0  0.5074431029039415 0.1505553053328508 0  0.5121522986079421 0.1488836223040181 0  0.5168581169915156 0.1472077742961062 0  0.5215626091735378 0.1455281624829833 0  0.5262650446701737 0.1438446667989539 0  0.5309652612458262 0.1421582916588841 0  0.5356635943715027 0.1404698193351244 0  0.5403600829334796 0.1387788285376653 0  0.5450554619474792 0.1370857208528726 0  0.5497503905252906 0.135392350288244 0  0.5544436636645269 0.1336970469249002 0  0.5591366005008096 0.1320010042578066 0  0.5638285097674575 0.1303045328906093 0  0.5685196910600918 0.12860743898869 0  0.5732105802340542 0.1269103736717024 0  0.5779009671236572 0.1252131921247495 0  0.5825910950710302 0.1235159949668471 0  0.587281143388822 0.1218190493729636 0  0.5804168404967447 0.1028463932412631 0  0.5757270576292517 0.1045434252617924 0  0.5710373905057979 0.1062405685883257 0  0.5663479069586678 0.1079376629322812 0  0.5616585792537067 0.109634483005113 0  0.5569694962271637 0.1113311229649523 0  0.5522806542233837 0.1130269210576037 0  0.5475923532556703 0.1147217984289778 0  0.5429039789991699 0.1164159011738321 0  0.5382159574172211 0.1181080338129668 0  0.5335282503556162 0.1197990013446542 0  0.5288401505523881 0.121487402337376 0  0.5241524750558901 0.1231723630191242 0  0.5194655196309618 0.1248563965510446 0  0.5147775619226612 0.1265358451212319 0  0.5100900699599823 0.1282097531874433 0  0.5054033317271505 0.1298821500904933 0  0.5007145635915645 0.1315477981690837 0  0.4960262984279726 0.1332058661109503 0  0.4913389083691944 0.1348618540622074 0  0.4866484472005325 0.1365085999402545 0  0.4819584411838722 0.1381453127811711 0  0.4772694183535826 0.1397793145934043 0  0.4725761156968359 0.1414013218738833 0  0.4678832440666555 0.1430103336688616 0  0.4631910079440446 0.1446145802377251 0  0.4584951946727927 0.1462058058330404 0  0.4537987879702112 0.1477801630796727 0  0.4491023768517002 0.1493512609705513 0  0.4443983952521232 0.1509043952200216 0  0.4396962012492655 0.1524359341588364 0  0.4349950286392811 0.1539623931445007 0  0.4302877345607601 0.1554663693344116 0  0.425577006871712 0.156958939785327 0  0.4208639289221661 0.1584321306902843 0  0.4161452076181977 0.1598815477100333 0  0.4114297670121694 0.1613173081997903 0  0.4067071103208392 0.1627290518680921 0  0.4019850057405063 0.164119878279786 0  0.3972610652678789 0.1654862050614564 0  0.3925315701114485 0.1668267937727805 0  0.3877937602640414 0.1681484256169348 0  0.3830506877469243 0.1694408306777075 0  0.3783169857775418 0.1707104541354111 0  0.373567571319009 0.1719482164824727 0  0.3688249139079648 0.1731514507096365 0  0.3640688927886843 0.1743313200705519 0  0.3593118248989007 0.1754714823102837 0  0.3545456240913463 0.1765881366071776 0  0.3497732283221531 0.1776660172617289 0  0.3450136733971672 0.1787152066462856 0  0.3402348384836097 0.1797246616948455 0  0.3354671428420729 0.1806889661795467 0  0.3306780338425886 0.1816204767374921 0  0.3258893498906982 0.1824937870983635 0  0.3211044252790971 0.1833537415465727 0  0.3163061420515336 0.1841508938796076 0  0.3115255831797138 0.1849052744482776 0  0.306721802373585 0.1856176610890538 0  0.3019195960998309 0.1862673645826684 0  0.2971098824452533 0.186882239177255 0  0.2922952272155075 0.1874363858405384 0  0.287497587516844 0.1879488671297053 0  0.2826756703608831 0.1884049994736555 0  0.2778744361042765 0.1888049897437858 0  0.2730548239431796 0.1891376838503075 0  0.26825306429257 0.1894129109011943 0  0.2634379697094143 0.1896447445188495 0  0.2586213298718979 0.1898071332121565 0  0.253806317631783 0.1898904153006791 0  0.5868228693117337 0.1058926204641422 0  0.5902549763017534 0.1153790035059215 0  0.2589874293603368 0.2004454668264016 0  0.5345986726454433 0.1301370131545646 0  0.5583993993226889 0.1215104314676727 0  0.2774785890603985 0.1997393193929641 0  0.5067454388831326 0.1400083869106794 0  0.5208337247148053 0.1349792927434594 0  0.2943406880079013 0.1966423627696373 0  0.5720447846930117 0.1161142425166487 0  0.3101999197623037 0.1952639286476629 0  0.3365984136222277 0.1915803050521473 0  0.4926446934252721 0.1449923938578385 0  0.3543724322112126 0.1869583266455072 0  0.4785270149519171 0.1499151033756695 0  0.3694625158708898 0.1833979557595175 0  0.3880646666423382 0.1785219536365574 0  0.4639189833255648 0.1545339543656374 0  0.4499015172255409 0.1597072630159727 0  0.4020845698225528 0.1746907290693599 0  0.4167076844024927 0.1702546401683256 0  0.4350986012269292 0.1645056778991618 0  0.3199344326861783 0.1937813142120197 0  0.549076071440319 0.1249037495402497 0  0.4248520712150093 0.1675909349939871 0  0.3460599449189055 0.1889444444042335 0  0.3798402651438624 0.1808837670844681 0  0.2860129745418261 0.1982421168645987 0  0.5795149805891623 0.1120181930145117 0  0.2680578712998998 0.2012056652010345 0  0.4577057061163198 0.1595012948699727 0  0.4860161039423295 0.1498180768695432 0  0.5001352464223908 0.1448616373762026 0  0.3946352163366169 0.174356418614381 0  0.4718748608116633 0.1547047480097449 0  0.5142370308810909 0.1398525378059258 0  0.4435021448447855 0.1641870495710512 0  0.5283259204526054 0.1348057324312842 0  0.4089245736230507 0.1702248314821114 0  0.3611008079112135 0.1830815606257886 0  0.3029319867254742 0.1940224750608111 0  0.5643175750145151 0.1169867808393064 0  0.5405578847165015 0.1249094960765105 0  0.3282756142694395 0.1952304608016134 0  0.5409141436783023 0.1319773167549783 0  0.329090012709526 0.1882390478638948 0  0.5283189773006305 0.1282434609506273 0  0.5142449384982904 0.1332911291043661 0  0.5001640586061968 0.1383014991880725 0  0.568496653587136 0.1220454660955756 0  0.3015334907489922 0.2003788321107499 0  0.4719680010404433 0.148148599303335 0  0.4860730838566707 0.1432597625196615 0  0.3941641322954703 0.1808735220781695 0  0.3603598276137829 0.1895625943889586 0  0.4536648235413758 0.1543463394114354 0  0.4436978015357222 0.1576384855317029 0  0.4085487574291316 0.1767529831152936 0  0.2557307065461272 0.1960400716316099 0  0.25505617176474 0.2034070269612976 0  0.4325016651766532 0.1693254039853921 0  0.3723255774571002 0.1787514019528695 0  0.3392211866982 0.1861602282720072 0  0.2809416591292462 0.1946863811694227 0  0.290793943903694 0.1937862463365769 0  0.4227946883415493 0.1725409924951316 0  0.3485241097050805 0.1841991744214128 0  0.3820843099374842 0.1760238998081523 0  0.3157635612494203 0.1905426284409623 0  0.5539322700623523 0.1272138232302546 0  0.5515638788298725 0.1198050394929458 0  0.3165622977572851 0.1982285182541665 0  0.2708374345386202 0.1953205773767937 0  0.5781132905655374 0.1194749803477086 0  0.429861655628707 0.1613916189537784 0  0.4200888000132099 0.164878732723755 0  0.340584587750224 0.1948206152862624 0  0.2812127433308235 0.2034157859858136 0  0.2918266267157771 0.2024197872702954 0  0.3744967984196517 0.1867981538701855 0  0.3502163343397189 0.1931816489006583 0  0.3841920488533738 0.1849362386971297 0  0.2646572113529239 0.1958697610873551 0  0.5845422663518798 0.1164177615467411 0  0.5226290083647861 0.1297723895410691 0  0.5085533848298226 0.1348065646748029 0  0.3074011821577627 0.2000690778172798 0  0.4944702446121995 0.1397977921577078 0  0.5631450758021425 0.1244880220038212 0  0.4803759981475108 0.1447302575221248 0  0.4663069111190827 0.1495677270254614 0  0.3661824549608977 0.18868390
[...]
<PointData  Vectors="f_20-1"> 
<DataArray  type="Float64"  Name="f_20-1"  NumberOfComponents="3" format="ascii">-1.4893319031882325e-02 -8.8850549537965617e-02 0.0000000000000000e+00  -8.0289389425850129e-03 -8.9877842160503943e-02 0.0000000000000000e+00  0.0000000000000000e+00 0.0000000000000000e+00 0.0000000000000000e+00  0.0000000000000000e+00 0.0000000000000000e+00 0.0000000000000000e+00  -1.1461061817575993e-02 -8.9364174898036997e-02 0.0000000000000000e+00  0.0000000000000000e+00 0.0000000000000000e+00 0.0000000000000000e+00  0.0000000000000000e+00 0.0000000000000000e+00 0.0000000000000000e+00  0.0000000000000000e+00 0.0000000000000000e+00 0.0000000000000000e+00  0.0000000000000000e+00 0.0000000000000000e+00 0.0000000000000000e+00  1.1931536177369669e-04 -1.0435938591690228e-04 0.0000000000000000e+00  2.4998262827418901e-04 -2.1813363103063900e-04 0.0000000000000000e+00  3.7888194629161193e-04 -3.6301450361708471e-04 0.0000000000000000e+00  4.9899275434489695e-04 -6.0437432330533343e-04 0.0000000000000000e+00  6.1070599657788186e-04 -8.9792544078787489e-04 0.0000000000000000e+00  7.2414478363666838e-04 -1.2653531016060550e-03 0.0000000000000000e+00  8.2297280910586710e-04 -1.6709658874688078e-03 0.0000000000000000e+00  9.0668784892793727e-04 -2.1438150273321880e-03 0.0000000000000000e+00  9.8760207889211763e-04 -2.6696919996903987e-03 0.0000000000000000e+00  1.0570000493650572e-03 -3.2483264869965717e-03 0.0000000000000000e+00  1.1259577046129126e-03 -3.8980535839400802e-03 0.0000000000000000e+00  1.1928031667829745e-03 -4.5590796600407197e-03 0.0000000000000000e+00  1.2356121523402657e-03 -5.2990302841528234e-03 0.0000000000000000e+00  1.2900126592418585e-03 -6.0821964036239786e-03 0.0000000000000000e+00  1.3175275022829192e-03 -6.9033081258199989e-03 0.0000000000000000e+00  1.3416414311799947e-03 -7.7818530470510896e-03 0.0000000000000000e+00  1.3553577016821084e-03 -8.6929437326999735e-03 0.0000000000000000e+00  1.3568470196571897e-03 -9.6595338510431731e-03 0.0000000000000000e+00  1.3462036916527796e-03 -1.0648672610864208e-02 0.0000000000000000e+00  1.3269639860181868e-03 -1.1685210285796282e-02 0.0000000000000000e+00  1.2965021188324237e-03 -1.2754280233840086e-02 0.0000000000000000e+00  1.2540692412683358e-03 -1.3855464930867535e-02 0.0000000000000000e+00  1.2079406304489836e-03 -1.5009947441143782e-02 0.0000000000000000e+00  1.1602102621712505e-03 -1.6172115629595009e-02 0.0000000000000000e+00  1.0951842091967252e-03 -1.7381427213899590e-02 0.0000000000000000e+00  1.0205222512734097e-03 -1.8610177341974486e-02 0.0000000000000000e+00  9.3742705489454421e-04 -1.9874384039531023e-02 0.0000000000000000e+00  8.4506903287767568e-04 -2.1163974682397980e-02 0.0000000000000000e+00  7.4190579483003692e-04 -2.2477578367294082e-02 0.0000000000000000e+00  6.3418784286487851e-04 -2.3831198234398335e-02 0.0000000000000000e+00  5.2511242391822387e-04 -2.5188565934354618e-02 0.0000000000000000e+00  3.9784609259031967e-04 -2.6580133947170726e-02 0.0000000000000000e+00  2.6592467251546439e-04 -2.7999414150555124e-02 0.0000000000000000e+00  1.3182600008257875e-04 -2.9425000287461790e-02 0.0000000000000000e+00  -1.7540903289995592e-05 -3.0880950058522986e-02 0.0000000000000000e+00  -1.6540307574252399e-04 -3.2352521558310657e-02 0.0000000000000000e+00  -3.2667918514288721e-04 -3.3841779533647934e-02 0.0000000000000000e+00  -4.8859271139485648e-04 -3.5352062183172439e-02 0.0000000000000000e+00  -6.6095064355545545e-04 -3.6873805517807522e-02 0.0000000000000000e+00  -8.3993475158839620e-04 -3.8413563327662568e-02 0.0000000000000000e+00  -1.0218969900428654e-03 -3.9966108600303210e-02 0.0000000000000000e+00  -1.2086166936899265e-03 -4.1533265702446705e-02 0.0000000000000000e+00  -1.4035001579893876e-03 -4.3113053855795024e-02 0.0000000000000000e+00  -1.6007079482312035e-03 -4.4703771325911870e-02 0.0000000000000000e+00  -1.8024249163155321e-03 -4.6307001264687786e-02 0.0000000000000000e+00  -2.0110083174328755e-03 -4.7920626518660740e-02 0.0000000000000000e+00  -2.2222126343348272e-03 -4.9543068979762038e-02 0.0000000000000000e+00  -2.4372369581509368e-03 -5.1175658027461476e-02 0.0000000000000000e+00  -2.6576728601751614e-03 -5.2815898972780745e-02 0.0000000000000000e+00  -2.8803742793504787e-03 -5.4463047791344442e-02 0.0000000000000000e+00  -3.1061918201804196e-03 -5.6117977113371686e-02 0.0000000000000000e+00  -3.3363529664809937e-03 -5.7778778027824149e-02 0.0000000000000000e+00  -3.5683943944457741e-03 -5.9444694667149196e-02 0.0000000000000000e+00  -3.8030043960615104e-03 -6.1116377695981904e-02 0.0000000000000000e+00  -4.0409917181257618e-03 -6.2792225703893825e-02 0.0000000000000000e+00  -4.2803052417624051e-03 -6.4471837517016739e-02 0.0000000000000000e+00  -4.5216754507654286e-03 -6.6155333201046107e-02 0.0000000000000000e+00  -4.7652645807725871e-03 -6.7841708341115858e-02 0.0000000000000000e+00  -5.0107371607341460e-03 -6.9530180664875568e-02 0.0000000000000000e+00  -5.2580543043731819e-03 -7.1221171462334698e-02 0.0000000000000000e+00  -5.5064809960116284e-03 -7.2914279147127350e-02 0.0000000000000000e+00  -5.7553581238550229e-03 -7.4607649711756055e-02 0.0000000000000000e+00  -6.0058906902613679e-03 -7.6302953075099822e-02 0.0000000000000000e+00  -6.2567595596384291e-03 -7.7998995742193350e-02 0.0000000000000000e+00  -6.5086559986541727e-03 -7.9695467109390614e-02 0.0000000000000000e+00  -6.7612804116541575e-03 -8.1392561011309983e-02 0.0000000000000000e+00  -7.0141969433292510e-03 -8.3089626328297611e-02 0.0000000000000000e+00  -7.2676157593767618e-03 -8.4786807875250544e-02 0.0000000000000000e+00  -7.5212935176506047e-03 -8.6484005033152872e-02 0.0000000000000000e+00  -7.7750509055185433e-03 -8.8180950627036320e-02 0.0000000000000000e+00  -1.4639353797638529e-02 -8.7153606758736901e-02 0.0000000000000000e+00  -1.4385330959506504e-02 -8.5456574738207530e-02 0.0000000000000000e+00  -1.4131192377321295e-02 -8.3759431411674315e-02 0.0000000000000000e+00  -1.3876870218804935e-02 -8.2062337067718760e-02 0.0000000000000000e+00  -1.3622392218144822e-02 -8.0365516994887004e-02 0.0000000000000000e+00  -1.3367669539067128e-02 -7.8668877035047741e-02 0.0000000000000000e+00  -1.3112705837234473e-02 -7.6973078942396342e-02 0.0000000000000000e+00  -1.2857201099318634e-02 -7.5278201571022205e-02 0.0000000000000000e+00  -1.2601769650188230e-02 -7.3584098826167815e-02 0.0000000000000000e+00  -1.2345985526482306e-02 -7.1891966187033168e-02 0.0000000000000000e+00  -1.2089886882488068e-02 -7.0200998655345737e-02 0.0000000000000000e+00  -1.1834180980116642e-02 -6.8512597662623964e-02 0.0000000000000000e+00  -1.1578050771005795e-02 -6.6827636980875724e-02 0.0000000000000000e+00  -1.1321200490301253e-02 -6.5143603448955437e-02 0.0000000000000000e+00  -1.1065352493001661e-02 -6.3464154878768053e-02 0.0000000000000000e+00  -1.0809038750041980e-02 -6.1790246812556765e-02 0.0000000000000000e+00  -1.0551971277271355e-02 -6.0117849909506679e-02 0.0000000000000000e+00  -1.0296933707258073e-02 -5.8452201830916303e-02 0.0000000000000000e+00  -1.0041393165245140e-02 -5.6794133889049685e-02 0.0000000000000000e+00  -9.7849775183862162e-03 -5.5138145937792545e-02 0.0000000000000000e+00  -9.5316329814396292e-03 -5.3491400059745522e-02 0.0000000000000000e+00  -9.2778332924808755e-03 -5.1854687218828861e-02 0.0000000000000000e+00  -9.0230504171516530e-03 -5.0220685406595675e-02 0.0000000000000000e+00  -8.7725473682687370e-03 -4.8598678126116665e-02 0.0000000000000000e+00  -8.5216132928411549e-03 -4.6989666331138449e-02 0.0000000000000000e+00  -8.2700437098237253e-03 -4.5385419762274885e-02 0.0000000000000000e+00  -8.0220512754628076e-03 -4.3794194166959531e-02 0.0000000000000000e+00  -7.7746522724236279e-03 -4.2219836920327367e-02 0.0000000000000000e+00  -7.5272576853101878e-03 -4.0648739029448676e-02 0.0000000000000000e+00  -7.2874335792576551e-03 -3.9095604779978428e-02 0.0000000000000000e+00  -7.0458218765061054e-03 -3.7564065841163605e-02 0.0000000000000000e+00  -6.8031887808654131e-03 -3.6037606855499352e-02 0.0000000000000000e+00  -6.5666771537696220e-03 -3.4533630665588406e-02 0.0000000000000000e+00  -6.3335991372011147e-03 -3.3041060214673020e-02 0.0000000000000000e+00  -6.1028713811205606e-03 -3.1567869309715751e-02 0.0000000000000000e+00  -5.8777869794505010e-03 -3.0118452289966683e-02 0.0000000000000000e+00  -5.6494218798361804e-03 -2.8682691800209666e-02 0.0000000000000000e+00  -5.4282728655201699e-03 -2.7270948131907963e-02 0.0000000000000000e+00  -5.2065717401932341e-03 -2.5880121720214040e-02 0.0000000000000000e+00  -4.9867065071690329e-03 -2.4513794938543634e-02 0.0000000000000000e+00  -4.7723959579416171e-03 -2.3173206227219443e-02 0.0000000000000000e+00  -4.5664000997133877e-03 -2.1851574383065231e-02 0.0000000000000000e+00  -4.3656669111838825e-03 -2.0559169322292549e-02 0.0000000000000000e+00  -4.1555631749405275e-03 -1.9289545864588923e-02 0.0000000000000000e+00  -3.9611719278167179e-03 -1.8051783517527377e-02 0.0000000000000000e+00  -3.7600236332123609e-03 -1.6848549290363522e-02 0.0000000000000000e+00  -3.5722390468242546e-03 -1.5668679929448138e-02 0.0000000000000000e+00  -3.3855012309605800e-03 -1.4528517689716282e-02 0.0000000000000000e+00  -3.2078963328644994e-03 -1.3411863392822375e-02 0.0000000000000000e+00  -3.0364863964359311e-03 -1.2333982738271063e-02 0.0000000000000000e+00  -2.8522356157637580e-03 -1.1284793353714436e-02 0.0000000000000000e+00  -2.6872648236822183e-03 -1.0275338305154470e-02 0.0000000000000000e+00  -2.5111547595806109e-03 -9.3110338204532728e-03 0.0000000000000000e+00  -2.3564580534265866e-03 -8.3795232625079440e-03 0.0000000000000000e+00  -2.2013362996769368e-03 -7.5062129016365475e-03 0.0000000000000000e+00  -2.0424552056200070e-03 -6.6462584534272328e-03 0.0000000000000000e+00  -1.8969327275256331e-03 -5.8491061203923373e-03 0.0000000000000000e+00  -1.7336858936874322e-03 -5.0947255517223402e-03 0.0000000000000000e+00  -1.5936609941731672e-03 -4.3823389109462008e-03 0.0000000000000000e+00  -1.4520615622888010e-03 -3.7326354173316469e-03 0.0000000000000000e+00  -1.3179695112280549e-03 -3.1177608227449336e-03 0.0000000000000000e+00  -1.1888190353353670e-03 -2.5636141594615972e-03 0.0000000000000000e+00  -1.0426530283434206e-03 -2.0511328702946404e-03 0.0000000000000000e+00  -9.2076447864646895e-04 -1.5950005263445253e-03 0.0000000000000000e+00  -7.7819302959510593e-04 -1.1950102562142155e-03 0.0000000000000000e+00  -6.5399948504469803e-04 -8.6231614969249388e-04 0.0000000000000000e+00  -5.1195343001599817e-04 -5.8708909880575866e-04 0.0000000000000000e+00  -3.8324230753335143e-04 -3.5525548115045771e-04 0.0000000000000000e+00  -2.5607643941154664e-04 -1.9286678784349086e-04 0.0000000000000000e+00  -1.2728297387481886e-04 -1.0958469932097225e-04 0.0000000000000000e+00  -1.3177130688266283e-02 -8.9107379535836084e-02 0.0000000000000000e+00  -9.7450236982465094e-03 -8.9620996494051405e-02 0.0000000000000000e+00  1.4002828687555984e-05 -1.0692251643873834e-04 0.0000000000000000e+00  -8.5475617398643802e-03 -6.9862986845404387e-02 0.0000000000000000e+00  -9.8403901541271443e-03 -7.8460027113225986e-02 0.0000000000000000e+00  2.7196348596038474e-05 -1.0548725492284796e-03 0.0000000000000000e+00  -7.1041444937641370e-03 -5.9893955738412510e-02 0.0000000000000000e+00  -7.8472757789326449e-03 -6.4923049905637548e-02 0.0000000000000000e+00  -1.7020719786345348e-04 -2.6488280709012634e-03 0.0000000000000000e+00  -1.0733298445480989e-02 -8.3428737583686144e-02 0.0000000000000000e+00  -2.1291989462193339e-04 -4.7065299332348307e-03 0.0000000000000000e+00  -4.0176191962739246e-04 -9.2491561912494413e-03 0.0000000000000000e+00  -6.3734728347738549e-03 -5.4909948791251717e-02 0.0000000000000000e+00  -9.0918535969181406e-04 -1.3041673354553668e-02 0.0000000000000000e+00  -5.6597341912754152e-03 -4.9987239273415383e-02 0.0000000000000000e+00  -1.2748555196653636e-03 -1.6616281935851379e-02 0.0000000000000000e+00  -1.8235908679114436e-03 -2.1478046363525377e-02 0.0000000000000000e+00  -5.0667717237086584e-03 -4.5007718060032037e-02 0.0000000000000000e+00  -4.2562144586557873e-03 -4.0292736983937164e-02 0.0000000000000000e+00  -2.2689215792802255e-03 -2.5406928281564493e-02 0.0000000000000000e+00  -2.8434073414642267e-03 -2.9745359831780071e-02 0.0000000000000000e+00  -3.6033766375220054e-03 -3.5480084405515457e-02 0.0000000000000000e+00  -3.1284233949195237e-04 -6.2275700026202434e-03 0.0000000000000000e+00  -9.3292826677659445e-03 -7.5087366245107964e-02 0.0000000000000000e+00  -3.2146434737040704e-03 -3.2257969826837027e-02 0.0000000000000000e+00  -7.0604970764189510e-04 -1.1206650775203976e-02 0.0000000000000000e+00  -1.5323694220284337e-03 -1.9267328094983934e-02 0.0000000000000000e+00  -5.5363150383665229e-05 -1.7994277060194720e-03 0.0000000000000000e+00  -1.1607400588957196e-02 -8.6226722920362708e-02 0.0000000000000000e+00  6.8555154037253815e-05 -4.6946044569453970e-04 0.0000000000000000e+00  -3.8677341263080663e-03 -4.2749068458827630e-02 0.0000000000000000e+00  -5.2201705340159813e-03 -5.2432286459265898e-02 0.0000000000000000e+00  -5.9324451708076195e-03 -5.7388725952609188e-02 0.0000000000000000e+00  -2.6687497320605096e-03 -2.3393218056815414e-02 0.0000000000000000e+00  -4.5299965478263803e-03 -4.7545615319060271e-02 0.0000000000000000e+00  -6.6620778289543641e-03 -6.2397825522892629e-02 0.0000000000000000e+00  -3.2398782809802372e-03 -3.8063313757748851e-02 0.0000000000000000e+00  -7.4046053742794849e-03 -6.7444630897535662e-02 0.0000000000000000e+00  -3.2108095624809674e-03 -2.7524805189086194e-02 0.0000000000000000e+00  -1.5965182181217547e-03 -1.4668076045403317e-02 0.0000000000000000e+00  -4.3967093642192115e-04 -3.7271616103757505e-03 0.0000000000000000e+00  -1.0963396457307734e-02 -8.0762855831843866e-02 0.0000000000000000e+00  -9.9019712025546509e-03 -7.2218982397256243e-02 0.0000000000000000e+00  8.2841054755434889e-05 -7.6410607246271463e-03 0.0000000000000000e+00  -7.5037583714438142e-03 -7.1863004814497949e-02 0.0000000000000000e+00  -1.1447143744727946e-03 -7.9206305666543794e-03 0.0000000000000000e+00  -9.6021079231808967e-03 -6.7881720713783664e-02 0.0000000000000000e+00  -8.8447296086749273e-03 -6.2834052560039641e-02 0.0000000000000000e+00  -8.0941923839254696e-03 -5.7823682476337325e-02 0.0000000000000000e+00  -8.9748772815736212e-03 -8.1829352240013087e-02 0.0000000000000000e+00  3.5239248403737787e-04 -3.4959862248438020e-03 0.0000000000000000e+00  -6.6274157159677341e-03 -4.7976582361068991e-02 0.0000000000000000e+00  -7.3537500165964031e-03 -5.2865419144744769e-02 0.0000000000000000e+00  -9.4927437629265443e-04 -2.3001296257427129e-02 0.0000000000000000e+00  -1.4693911862886510e-04 -1.4312223946636466e-02 0.0000000000000000e+00  -5.7180573043388271e-03 -4.1778842252963952e-02 0.0000000000000000e+00  -5.2347809869582752e-03 -3.8486696132697722e-02 0.0000000000000000e+00  -1.3960663594903510e-03 -2.7121835220305431e-02 0.0000000000000000e+00  -5.5593434069818854e-05 -4.5765394119568957e-05 0.0000000000000000e+00  4.1435733800182265e-05 -3.5616037813871933e-05 0.0000000000000000e+00  -2.3014824698156331e-03 -3.4448353778763263e-02 0.0000000000000000e+00  -2.3106241513098278e-03 -1.7474840282985730e-02 0.0000000000000000e+00  -1.4046498882303742e-03 -9.8865639219818096e-03 0.0000000000000000e+00  -3.5850898973713047e-04 -1.3604110246274543e-03 0.0000000000000000e+00  -4.7469484029541003e-04 -2.2953865283512464e-03 0.0000000000000000e+00  -1.8758452404398498e-03 -3.1412215310822861e-02 0.0000000000000000e+00  -1.6380660278324613e-03 -1.1847617772774941e-02 0.0000000000000000e+00  -2.6845057347851782e-03 -2.0022892386083686e-02 0.0000000000000000e+00  -8.6880728893567549e-04 -5.6168301224076853e-03 0.0000000000000000e+00  -8.2227310429885837e-03 -7.6567826029644515e-02 0.0000000000000000e+00  -1.0877508872104555e-02 -7.6271152868191916e-02 0.0000000000000000e+00  3.2279417397227712e-04 -5.6394374883026229e-03 0.0000000000000000e+00  -2.5127888214197900e-04 -6.4906695579014170e-04 0.0000000000000000e+00  -9.1881470748227598e-03 -8.5247807755373745e-02 0.0000000000000000e+00  -4.8063010155638478e-03 -3.4073527001472884e-02 0.0000000000000000e+00  -4.2408503945887141e-03 -3.0996965370151126e-02 0.0000000000000000e+00  3.2863666687168118e-04 -9.9734347428298460e-03 0.0000000000000000e+00  3.4425065473025183e-04 -1.3584557954520687e-03 0.0000000000000000e+00  4.1892340190497385e-04 -2.3611644368001197e-03 0.0000000000000000e+00  -2.7459419084157981e-04 -1.7736700174669898e-02 0.0000000000000000e+00  2.9468544983225179e-04 -1.1993692417972181e-02 0.0000000000000000e+00  -3.3623997585602669e-04 -2.0239102621506307e-02 0.0000000000000000e+00  -1.5727519258125093e-04 -3.3921321128226170e-04 0.0000000000000000e+00  -9.7824980144094794e-03 -8.7623780812177046e-02 0.0000000000000000e+00  -9.4682526808282808e-03 -6.5872120364018127e-02 0.0000000000000000e+00  -8.7124590989499269e-03 -6.0837945230282527e-02 0.0000000000000000e+00  4.0885659749696106e-04 -4.2777255699752974e-03 0.0000000000000000e+00  -7.9641821997270216e-03 -5.5846717747378614e-02 0.0000000000000000e+00  -8.5152277712925786e-03 -7.9858781383454910e-02 0.0000000000000000e+00  -7.2270115475633039e-03 -5.0914252382958387e-02 0.0000000000000000e+00  -6.5082864105436419e-03 -4.6072519865528017e-02 0.0000000000000000e+00  -1.4772269185606290e-04 -1.5683545825090656e-02 0.0000000000000000e+00  -6.1416749571213082e-03 -4.3603968851208888e-02 0.0000000000000000e+00  -9.9129303964842221e-04 -2.4610281473423354e-02 0.0000000000000000e+00  -5.1294923922593286e-03 -3.6660091380831608e-02 0.0000000000000000e+00  -1.4515773972859473e-03 -2.8812050609433430e-02 0.0000000000000000e+00  -1.2246367382982241e-02 -8.4510732943196124e-02 0.0000000000000000e+00  -7.5923945966351733e-03 -7.3859965986598469e-02 0.0000000000000000e+00  -1.1266650974216487e-03 -6.9001526065343936e-03 0.0000000000000000e+00  2.7260553112605295e-04 -7.1208802873794403e-04 0.0000000000000000e+00  1.4561507930746750e-04 -2.7240840143155816e-04 0.0000000000000000e+00  -2.9034548019453298e-03 -4.1334653647722493e-02 0.0000000000000000e+00  -4.0366769626933620e-03 -2.8777618667665972e-02 0.0000000000000000e+00  -3.5370188553535964e-03 -4.6101938291284519e-02 0.0000000000000000e+00  -5.6468179611177810e-03 -6.0889949282623257e-02 0.0000000000000000e+00  -4.2356084255862252e-03 -5.0955823245406033e-02 0.0000000000000000e+00  -4.9304630995987272e-03 -5.5894226760512977e-02 0.0000000000000000e+00  -3.2895676589083443e-03 -2.4702821015250648e-02 0.0000000000000000e+00  -2.3633866362694047e-03 -3.6711107558306505e-02 0.0000000000000000e+00  -2.2412706311224807e-03 -1.5713596485688878e-02 0.0000000000000000e+00  -3.1413969944655202e-03 -2.2039117470419967e-02 0.0000000000000000e+00  -6.8265695599693524e-03 -6.9199067318129456e-02 0.0000000000000000e+00  -2.0057920939021670e-03 -1.3535318261328602e-02 0.0000000000000000e+00  -6.6080283780195846e-03 -6.5829144385307736e-02 0.0000000000000000e+00  -8.0542146247533305e-04 -4.3377558077469566e-03 0.0000000000000000e+00  -6.7359897895720043e-04 -3.1185359739861278e-03 0.0000000000000000e+00  -1.1945814228661736e-02 -8.2156972472575085e-02 0.0000000000000000e+00  -1.1542064474238783e-02 -7.8999497735690496e-02 0.0000000000000000e+00  -5.7432121623174556e-03 -5.9197539705375953e-02 0.0000000000000000e+00  -5.0293209122734116e-03 -5.4219535147941429e-02 0.0000000000000000e+00  -3.5817676631391777e-03 -4.4427073983585343e-02 0.0000000000000000e+00  -6.3866043735212709e-03 -6.4183610135064961e-02 0.0000000000000000e+00  -4.3374402961554427e-03 -4.9304759351453946e-02 0.0000000000000000e+00  -2.9278963985182337e-03 -3.9705897081216919e-02 0.0000000000000000e+00  -3.4560868296803354e-03 -2.6046643085672967e-02 0.0000000000000000e+00  4.3051032070756667e-04 -6.8473003430930945e-03 0.0000000000000000e+00  -1.0769321963609198e-02 -7.3738303548229162e-02 0.0000000000000000e+00  -1.0237264991977427e-02 -7.0530573730971310e-02 0.0000000000000000e+00  3.532