<?xml version="1.0"?>
<VTKFile type="UnstructuredGrid"  version="0.1"  >
<UnstructuredGrid>
<Piece  NumberOfPoints="439" NumberOfCells="725">
<Points>
<DataArray  type="Float64"  NumberOfComponents="3"  format="ascii">0.5628331296234746 0.0571507354832579 0  0.5732111541377568 0.07421241461052232 0  0.2489897949 0.21 0  0.2489897949 0.19 0  0.5680221663289576 0.06568163705079674 0  0.2496355385699469 0.2060260530378829 0  0.249959460510575 0.2020130349814059 0  0.2499594605105767 0.1979869650186357 0  0.24963553856995 0.1939739469621422 0  0.2541010982277473 0.2098540121166833 0  0.2592299784429201 0.2096907286285286 0  0.2643561624750844 0.2094807343147474 0  0.269467761000719 0.2091289222942848 0  0.2745658049460256 0.2086988727781391 0  0.2796632249080725 0.208158836951496 0  0.2847372759503364 0.2075607669719534 0  0.2897847632059802 0.2068626294598122 0  0.2948240250231151 0.2060839508682677 0  0.2998414532906388 0.2052255743599724 0  0.3048507419292935 0.2042584099933863 0  0.3098558969512167 0.2032727143236786 0  0.3148151740313141 0.2021687498867004 0  0.3197860283893025 0.2009955122167813 0  0.324710614008256 0.1997664829369973 0  0.3296206794000151 0.1984481164852994 0  0.3345093423315295 0.1970798208278951 0  0.3393690631573009 0.1956265820853798 0  0.3442055123561269 0.1941388878900442 0  0.3490190768983764 0.1925780253937728 0  0.3538081509667381 0.1909674014389368 0  0.3585711359687936 0.1893078432638124 0  0.36331560368885 0.1875641476651366 0  0.3680556735538481 0.1858075867835379 0  0.3727564859536783 0.1839797717415862 0  0.3774366067844097 0.1821224160642438 0  0.3820936390462947 0.1802101408496389 0  0.3867286027043264 0.1782590584567736 0  0.391339071165641 0.176271842341071 0  0.3959299048953567 0.1742210542897708 0  0.4005173441563357 0.1721639238134082 0  0.4050645224424476 0.1700567549477061 0  0.4095947618266617 0.1679055961349648 0  0.4141192693091762 0.1657444099796309 0  0.4186084613169477 0.1635386600959318 0  0.4230943978848586 0.1613064410076595 0  0.4275520090215654 0.1590497307504148 0  0.4320006964779176 0.156758541556067 0  0.4364278791489986 0.154452074296997 0  0.4408371844663282 0.152118271959489 0  0.4452364901624061 0.1497642869614118 0  0.4496220985680561 0.1473878855113087 0  0.4539890851056231 0.1449936682661719 0  0.4583476292548841 0.1425820961191416 0  0.4626934689378798 0.1401515277682095 0  0.4670235084590234 0.1377064322663844 0  0.4713453533949429 0.1352476490073302 0  0.4756564416484744 0.1327735425376728 0  0.479955157871395 0.1302889168406717 0  0.484246988745034 0.1277936527848026 0  0.4885301369687545 0.1252867195798428 0  0.4928033881505854 0.1227718264173565 0  0.4970711356528218 0.1202491325034292 0  0.5013319475127487 0.1177179021046228 0  0.5055852022962015 0.1151811670622135 0  0.5098344672890996 0.1126386508843587 0  0.5140784868026996 0.1100905182401442 0  0.5183174515788667 0.107538514582937 0  0.5225522858379825 0.1049838220475176 0  0.5267828652780661 0.1024256916913983 0  0.5310106108203045 0.09986445272379833 0  0.5352374808871116 0.09730294563294101 0  0.5394607120673535 0.09473890126680183 0  0.5436830587627979 0.09217370298612856 0  0.5479035101662533 0.08960823762166124 0  0.5521225334663772 0.08704197738266144 0  0.556341106739889 0.08447588551503243 0  0.5605588716027163 0.08190975254810882 0  0.5647763139688631 0.0793436577380365 0  0.5689937727500646 0.07677798234402844 0  0.5586157385638861 0.05971613686089292 0  0.5543986120113639 0.0622815769358744 0  0.5501817840428763 0.06484713391263235 0  0.5459653377033066 0.06741241854847298 0  0.5417491090674117 0.06997708739674301 0  0.5375332840606112 0.07254129954374966 0  0.5333175447030288 0.07510388172166563 0  0.5291023214286757 0.07766459199800434 0  0.5248866615380622 0.08022398414542403 0  0.5206707041646351 0.08277980386912626 0  0.5164547571299567 0.08533347608999892 0  0.5122369778429705 0.08788294952233698 0  0.5080183087554182 0.09042638186492083 0  0.5038004139023918 0.0929678878348151 0  0.4995787004969052 0.09550211169108136 0  0.4953551890396917 0.09802679293961551 0  0.491132230668556 0.1005485814801699 0  0.4869027495825711 0.1030599749232938 0  0.482670625779476 0.1055584517339794 0  0.4784390004048586 0.1080530665510055 0  0.4741980392757871 0.1105336352081252 0  0.4699533298590907 0.1129972952322497 0  0.4657090322393993 0.1154560465089718 0  0.4614522837620391 0.1178967468157549 0  0.4571905930858151 0.1203157320471299 0  0.4529278882158755 0.1227266373598476 0  0.4486536405219404 0.1251175079385778 0  0.4443713503313861 0.1274808472812541 0  0.4400876523664293 0.1298389077986797 0  0.4357840349694072 0.1321705160997006 0  0.4314747267024809 0.1344659030295287 0  0.4271650848686289 0.1367527756414644 0  0.4228365263784901 0.1390051623032819 0  0.4184979990453314 0.1412404403413637 0  0.4141482795034593 0.1434449950285748 0  0.4097805862202928 0.1456129693761899 0  0.4054133602663249 0.1477577287059138 0  0.4010259020991283 0.1498661321827313 0  0.3966321908745455 0.1519406806581946 0  0.3922272364950246 0.153976398157522 0  0.3878048106903368 0.1559726826408338 0  0.383362801779478 0.1579414104581059 0  0.3789032856319678 0.1598649797979055 0  0.3744521979291617 0.1617494483061067 0  0.3699663779131266 0.1635879640600362 0  0.3654817571108141 0.1653696510136671 0  0.3609692480372338 0.1671184074765922 0  0.356444847895284 0.1688047358008305 0  0.3518997026618244 0.1704566912939697 0  0.347335317203732 0.1720492956918122 0  0.3427848408620673 0.1735942319219033 0  0.3381947266234856 0.1750817941466036 0  0.3336126561946623 0.1764966893436907 0  0.3289900568343871 0.1778656796435495 0  0.324357188566569 0.1791447449481434 0  0.3197276771433489 0.1804035210468486 0  0.3150663529136405 0.181568099151511 0  0.3104259954764891 0.1826651969853925 0  0.3057431283746172 0.1837023530057611 0  0.3010540269035192 0.1846445729825196 0  0.296348652673887 0.1855359848879128 0  0.2916285949245424 0.186336921241616 0  0.2869300777297393 0.1870746278713895 0  0.2821888927616357 0.1877314382097544 0  0.2774740487465453 0.1883036145815231 0  0.272726292609644 0.1887787563471752 0  0.2680010739793388 0.1891692814534958 0  0.2632533163817178 0.1894983515587975 0  0.2585001895895661 0.1897273542344404 0  0.253746806582633 0.1898428483012821 0  0.5654276922398945 0.06141615743498136 0  0.5706165881620144 0.06994707816047786 0  0.2589883905052773 0.2004046068141378 0  0.5195092481404225 0.09516173381705076 0  0.5409146145348829 0.08213902318663116 0  0.2774552342827171 0.1992812488862805 0  0.494380853444194 0.1101350863286099 0  0.5070911675520208 0.1025362261558845 0  0.2941531198948534 0.1954601219802475 0  0.5530944181034474 0.07422962192155055 0  0.3098671529526684 0.1931128651853266 0  0.3358034982571299 0.1872322738239213 0  0.4816288474042444 0.1176637655613654 0  0.3529370728159754 0.1807666177415521 0  0.4688207901353323 0.1250973543624838 0  0.3674274679597776 0.1754384632527698 0  0.3851142950457134 0.1681369567966321 0  0.4554445967752279 0.1322739490906244 0  0.4426981361242305 0.1398184077000935 0  0.398344959528498 0.1623303237099224 0  0.4120073951805465 0.1557112103788453 0  0.4290667241125247 0.147060735238161 0  0.3194427002928464 0.1909055526409701 0  0.5325342431312609 0.08725656765168426 0  0.4195558131315947 0.1517838857601123 0  0.3449216751295728 0.1836522751245145 0  0.377336890107494 0.1715998159321914 0  0.2859200948786937 0.1974472388604153 0  0.5595384698058407 0.06879142364260732 0  0.2680728795965855 0.201007380531599 0  0.4502769983733299 0.1382354821166205 0  0.476088916012718 0.1236061549466293 0  0.4888841837475013 0.1161153389086896 0  0.3909778795721875 0.1630974665952926 0  0.4632256304500976 0.1309899575114579 0  0.5016263411773629 0.1085438802596687 0  0.4372253636173098 0.1453111191328514 0  0.5143293859098864 0.1009146907750214 0  0.404373650711194 0.1568986440613212 0  0.3591328755376518 0.1761461538764375 0  0.3025533650529523 0.1923488729169856 0  0.5457695416169542 0.07659035013233209 0  0.5242717074972086 0.08892565807262816 0  0.3278625256552967 0.1916340412110499 0  0.5259959156463836 0.09571639644584647 0  0.3280467157079107 0.1846058210431593 0  0.5130480618715236 0.09454397602002325 0  0.5003702421862232 0.1021674364657146 0  0.4876635930277489 0.1097311777768374 0  0.5508145703618699 0.08067998591438759 0  0.3015465542815437 0.1987710939517469 0  0.462113953566726 0.1245835480816097 0  0.474916123692237 0.1172121464841713 0  0.3914560708247767 0.169579542175905 0  0.3591686581781322 0.1826453047952333 0  0.4454191131567666 0.1339214523562183 0  0.4362864774524536 0.1388747305344638 0  0.4050099623984483 0.1633676512646953 0  0.2557025868275161 0.1960234513339947 0  0.2550718336890385 0.2033951931594155 0  0.4273301822305667 0.1522142648325732 0  0.3696516731737272 0.1704803004322969 0  0.3378650144319139 0.1815888350646269 0  0.2807275000204497 0.1941015385731814 0  0.2904811284246074 0.1927799826967533 0  0.4183392553157132 0.1569691353210917 0  0.3468503614571055 0.1786800401462725 0  0.3788857882627661 0.1665005774966568 0  0.3150470279966863 0.1879996208443185 0  0.537697157943015 0.08854814576154182 0  0.5339499743309319 0.08182182049783937 0  0.3164225447587026 0.1955927552546927 0  0.2707004295027609 0.1950487877281314 0  0.5596401199079993 0.07630087460773578 0  0.423424745445181 0.1448852235086117 0  0.4144527542167915 0.1498960459033255 0  0.3400836079117207 0.190044925365957 0  0.2813236652971665 0.2028095461550581 0  0.2919298440059749 0.2013450144247957 0  0.3728340513457633 0.1781436508698579 0  0.3494975448470307 0.1873934103371664 0  0.3821758331883255 0.174996305821721 0  0.2645737249320615 0.1957302439129303 0  0.5652779363239525 0.07207456588191274 0  0.507824177345747 0.09713147698378324 0  0.495137408470588 0.1047328595367297 0  0.3073940811989553 0.1980849499023727 0  0.4824181398262017 0.1122654601325417 0  0.5461013506593817 0.08409866452205636 0  0.4696535413868753 0.1197047555698351 0  0.4568656440477518 0.1269
[...]
<PointData  Vectors="f_20-1"> 
<DataArray  type="Float64"  Name="f_20-1"  NumberOfComponents="3" format="ascii">-3.7166870376525427e-02 -1.3284926451674203e-01 0.0000000000000000e+00  -2.6788845862243137e-02 -1.3578758538947769e-01 0.0000000000000000e+00  0.0000000000000000e+00 0.0000000000000000e+00 0.0000000000000000e+00  0.0000000000000000e+00 0.0000000000000000e+00 0.0000000000000000e+00  -3.1977833671042025e-02 -1.3431836294920330e-01 0.0000000000000000e+00  0.0000000000000000e+00 0.0000000000000000e+00 0.0000000000000000e+00  0.0000000000000000e+00 0.0000000000000000e+00 0.0000000000000000e+00  0.0000000000000000e+00 0.0000000000000000e+00 0.0000000000000000e+00  0.0000000000000000e+00 0.0000000000000000e+00 0.0000000000000000e+00  1.6749762211790150e-04 -1.4598788331666131e-04 0.0000000000000000e+00  3.5257213166587682e-04 -3.0927137147145490e-04 0.0000000000000000e+00  5.3495045819219726e-04 -5.1926568525256106e-04 0.0000000000000000e+00  7.0274327818902144e-04 -8.7107770571513883e-04 0.0000000000000000e+00  8.5698151786870900e-04 -1.3011272218608112e-03 0.0000000000000000e+00  1.0105957742972973e-03 -1.8411630485040029e-03 0.0000000000000000e+00  1.1408411109426542e-03 -2.4392330280465784e-03 0.0000000000000000e+00  1.2445226609636268e-03 -3.1373705401878636e-03 0.0000000000000000e+00  1.3399787724628145e-03 -3.9160491317323668e-03 0.0000000000000000e+00  1.4136013343680745e-03 -4.7744256400276764e-03 0.0000000000000000e+00  1.4790842673937301e-03 -5.7415900066136614e-03 0.0000000000000000e+00  1.5404335836986258e-03 -6.7272856763213327e-03 0.0000000000000000e+00  1.5559049581777109e-03 -7.8312501132995586e-03 0.0000000000000000e+00  1.5829536105477016e-03 -9.0044877832186187e-03 0.0000000000000000e+00  1.5637335238827830e-03 -1.0233517063002654e-02 0.0000000000000000e+00  1.5299932100234503e-03 -1.1551883514700659e-02 0.0000000000000000e+00  1.4748504359087806e-03 -1.2920179172104862e-02 0.0000000000000000e+00  1.3907655560725025e-03 -1.4373417914620152e-02 0.0000000000000000e+00  1.2834090492693682e-03 -1.5861112109955763e-02 0.0000000000000000e+00  1.1531678859003302e-03 -1.7421974606227245e-02 0.0000000000000000e+00  9.9843624864356484e-04 -1.9032598561063256e-02 0.0000000000000000e+00  8.1761554508088716e-04 -2.0692156736187652e-02 0.0000000000000000e+00  6.1827755951892065e-04 -2.2435852334863341e-02 0.0000000000000000e+00  4.1454171889847405e-04 -2.4192413216462136e-02 0.0000000000000000e+00  1.7154841309942925e-04 -2.6020228258413811e-02 0.0000000000000000e+00  -9.2136461778007109e-05 -2.7877583935756102e-02 0.0000000000000000e+00  -3.7890990551729242e-04 -2.9789859150361166e-02 0.0000000000000000e+00  -6.8775195310740258e-04 -3.1740941543226313e-02 0.0000000000000000e+00  -1.0210891974220693e-03 -3.3728157658928913e-02 0.0000000000000000e+00  -1.3740611733137919e-03 -3.5778945710229215e-02 0.0000000000000000e+00  -1.7304276179629658e-03 -3.7836076186591822e-02 0.0000000000000000e+00  -2.1270550374632349e-03 -3.9943245052293852e-02 0.0000000000000000e+00  -2.5406213588693009e-03 -4.2094403865035157e-02 0.0000000000000000e+00  -2.9599195819755772e-03 -4.4255590020369148e-02 0.0000000000000000e+00  -3.4145332798159243e-03 -4.6461339904068241e-02 0.0000000000000000e+00  -3.8724024175331201e-03 -4.8693558992340513e-02 0.0000000000000000e+00  -4.3585969864596676e-03 -5.0950269249585158e-02 0.0000000000000000e+00  -4.8537152357598307e-03 -5.3241458443932986e-02 0.0000000000000000e+00  -5.3703382703343622e-03 -5.5547925703003008e-02 0.0000000000000000e+00  -5.9048386586684244e-03 -5.7881728040510935e-02 0.0000000000000000e+00  -6.4493386682384739e-03 -6.0235713038588178e-02 0.0000000000000000e+00  -7.0075359682302725e-03 -6.2612114488691376e-02 0.0000000000000000e+00  -7.5843551362928200e-03 -6.5006331733828027e-02 0.0000000000000000e+00  -8.1696166926824732e-03 -6.7417903880858401e-02 0.0000000000000000e+00  -8.7675827153199225e-03 -6.9848472231790470e-02 0.0000000000000000e+00  -9.3813488998434717e-03 -7.2293567733615643e-02 0.0000000000000000e+00  -1.0003309669570399e-02 -7.4752350992669844e-02 0.0000000000000000e+00  -1.0636027121701579e-02 -7.7226457462327175e-02 0.0000000000000000e+00  -1.1281116604411640e-02 -7.9711083159328205e-02 0.0000000000000000e+00  -1.1933091436427077e-02 -8.2206347215197303e-02 0.0000000000000000e+00  -1.2593748918335142e-02 -8.4713280420157189e-02 0.0000000000000000e+00  -1.3264303442163901e-02 -8.7228173582643578e-02 0.0000000000000000e+00  -1.3940361645565474e-02 -8.9750867496570741e-02 0.0000000000000000e+00  -1.4623355491254916e-02 -9.2282097895377183e-02 0.0000000000000000e+00  -1.5313906413439840e-02 -9.4818832937786493e-02 0.0000000000000000e+00  -1.6008447126200604e-02 -9.7361349115641260e-02 0.0000000000000000e+00  -1.6708233318239511e-02 -9.9909481759855812e-02 0.0000000000000000e+00  -1.7413074247732113e-02 -1.0246148541706303e-01 0.0000000000000000e+00  -1.8122045694254296e-02 -1.0501617795248237e-01 0.0000000000000000e+00  -1.8835271959786456e-02 -1.0757430830860164e-01 0.0000000000000000e+00  -1.9551332123186306e-02 -1.1013554727620166e-01 0.0000000000000000e+00  -2.0268267762034050e-02 -1.1269705436705904e-01 0.0000000000000000e+00  -2.0988842287434761e-02 -1.1526109873319819e-01 0.0000000000000000e+00  -2.1710301297650118e-02 -1.1782629701387143e-01 0.0000000000000000e+00  -2.2433655599858458e-02 -1.2039176237833871e-01 0.0000000000000000e+00  -2.3158438005368653e-02 -1.2295802261733850e-01 0.0000000000000000e+00  -2.3883670437494457e-02 -1.2552411448496756e-01 0.0000000000000000e+00  -2.4609711280317723e-02 -1.2809024745189118e-01 0.0000000000000000e+00  -2.5336074619817781e-02 -1.3065634226196352e-01 0.0000000000000000e+00  -2.6062421544275963e-02 -1.3322201765597150e-01 0.0000000000000000e+00  -3.6440455730496979e-02 -1.3028386313910706e-01 0.0000000000000000e+00  -3.5713776577394378e-02 -1.2771842306412556e-01 0.0000000000000000e+00  -3.4986798840242868e-02 -1.2515286608736767e-01 0.0000000000000000e+00  -3.4259439474166334e-02 -1.2258758145152701e-01 0.0000000000000000e+00  -3.3531862404439852e-02 -1.2002291260325701e-01 0.0000000000000000e+00  -3.2803881705619702e-02 -1.1745870045625037e-01 0.0000000000000000e+00  -3.2075815357589105e-02 -1.1489611827833443e-01 0.0000000000000000e+00  -3.1347232926313091e-02 -1.1233540800199565e-01 0.0000000000000000e+00  -3.0619087111295969e-02 -1.0977601585457593e-01 0.0000000000000000e+00  -2.9891238779068265e-02 -1.0722019613087372e-01 0.0000000000000000e+00  -2.9163380108147712e-02 -1.0466652391000106e-01 0.0000000000000000e+00  -2.8437353689534185e-02 -1.0211705047766301e-01 0.0000000000000000e+00  -2.7712217071477734e-02 -9.9573618135079131e-02 0.0000000000000000e+00  -2.6986306218871034e-02 -9.7032112165184883e-02 0.0000000000000000e+00  -2.6264213918757714e-02 -9.4497888308918643e-02 0.0000000000000000e+00  -2.5543919670332656e-02 -9.1973207060384518e-02 0.0000000000000000e+00  -2.4823072335865667e-02 -8.9451418519830087e-02 0.0000000000000000e+00  -2.4108747716251506e-02 -8.6940025076706173e-02 0.0000000000000000e+00  -2.3397065813741711e-02 -8.4441548266020544e-02 0.0000000000000000e+00  -2.2684885482721923e-02 -8.1946933448994466e-02 0.0000000000000000e+00  -2.1982040906185042e-02 -7.9466364791874772e-02 0.0000000000000000e+00  -2.1282944617262309e-02 -7.7002704767750230e-02 0.0000000000000000e+00  -2.0583436531334903e-02 -7.4543953491028214e-02 0.0000000000000000e+00  -1.9896379303065651e-02 -7.2103253184245014e-02 0.0000000000000000e+00  -1.9214264273681614e-02 -6.9684267952870180e-02 0.0000000000000000e+00  -1.8533163437992810e-02 -6.7273362640152393e-02 0.0000000000000000e+00  -1.7863605426315116e-02 -6.4882492061422159e-02 0.0000000000000000e+00  -1.7202089911248740e-02 -6.2519152718745905e-02 0.0000000000000000e+00  -1.6541982170581008e-02 -6.0161092201320224e-02 0.0000000000000000e+00  -1.5901793861973705e-02 -5.7829483900299322e-02 0.0000000000000000e+00  -1.5267296423290647e-02 -5.5534096970471389e-02 0.0000000000000000e+00  -1.4633132551517609e-02 -5.3247224358535628e-02 0.0000000000000000e+00  -1.4017885336039624e-02 -5.0994837696718101e-02 0.0000000000000000e+00  -1.3412606963581793e-02 -4.8759559658636278e-02 0.0000000000000000e+00  -1.2818520799827310e-02 -4.6555004971425264e-02 0.0000000000000000e+00  -1.2242408377355355e-02 -4.4387030623810109e-02 0.0000000000000000e+00  -1.1665828625680765e-02 -4.2242271294086191e-02 0.0000000000000000e+00  -1.1109481087231105e-02 -4.0133867817268770e-02 0.0000000000000000e+00  -1.0559386606153989e-02 -3.8059319341805425e-02 0.0000000000000000e+00  -1.0020535280023380e-02 -3.6023601842478027e-02 0.0000000000000000e+00  -9.4991553790532042e-03 -3.4027317359166122e-02 0.0000000000000000e+00  -8.9973585842767281e-03 -3.2058589541894118e-02 0.0000000000000000e+00  -8.5130690261403415e-03 -3.0135020202094472e-02 0.0000000000000000e+00  -8.0203510233205089e-03 -2.8250551693893369e-02 0.0000000000000000e+00  -7.5623653336991132e-03 -2.6412035939963923e-02 0.0000000000000000e+00  -7.1031804303631216e-03 -2.4630348986332852e-02 0.0000000000000000e+00  -6.6718837982748334e-03 -2.2881592523407858e-02 0.0000000000000000e+00  -6.2524782345772844e-03 -2.1195264199169471e-02 0.0000000000000000e+00  -5.8538177623863822e-03 -1.9543308706030296e-02 0.0000000000000000e+00  -5.4743975148570110e-03 -1.7950704308187709e-02 0.0000000000000000e+00  -5.0810681508636577e-03 -1.6405768078096704e-02 0.0000000000000000e+00  -4.7273766838063615e-03 -1.4918205853396363e-02 0.0000000000000000e+00  -4.3656414069913000e-03 -1.3503310656309287e-02 0.0000000000000000e+00  -4.0444350616280662e-03 -1.2134320356450531e-02 0.0000000000000000e+00  -3.7334976238060699e-03 -1.0855255051856628e-02 0.0000000000000000e+00  -3.4192033413682028e-03 -9.5964789531513186e-03 0.0000000000000000e+00  -3.1367218654187881e-03 -8.4319008484890056e-03 0.0000000000000000e+00  -2.8332735969121064e-03 -7.3348030146075053e-03 0.0000000000000000e+00  -2.5723349931408954e-03 -6.2976469942389842e-03 0.0000000000000000e+00  -2.3176307586005715e-03 -5.3554270174804739e-03 0.0000000000000000e+00  -2.0791992825943497e-03 -4.4640151120871581e-03 0.0000000000000000e+00  -1.8554513263005393e-03 -3.6630787583840098e-03 0.0000000000000000e+00  -1.6101628154480477e-03 -2.9253721286105058e-03 0.0000000000000000e+00  -1.4075420778938469e-03 -2.2685617902456815e-03 0.0000000000000000e+00  -1.1785803873262846e-03 -1.6963854184769284e-03 0.0000000000000000e+00  -9.8253081858027834e-04 -1.2212436528247139e-03 0.0000000000000000e+00  -7.6394374324732989e-04 -8.3071854650423134e-04 0.0000000000000000e+00  -5.6789563522991339e-04 -5.0164844120246545e-04 0.0000000000000000e+00  -3.7721672174338987e-04 -2.7264576555959951e-04 0.0000000000000000e+00  -1.8679402302481488e-04 -1.5715169871788765e-04 0.0000000000000000e+00  -3.4572307760105357e-02 -1.3358384256499689e-01 0.0000000000000000e+00  -2.9383411837985599e-02 -1.3505292183949505e-01 0.0000000000000000e+00  1.4963973628007373e-05 -1.4778252870252924e-04 0.0000000000000000e+00  -2.3636986244885201e-02 -1.0483826618291824e-01 0.0000000000000000e+00  -2.7325174941933011e-02 -1.1783143539426755e-01 0.0000000000000000e+00  3.8415709147575693e-06 -1.5129430559120327e-03 0.0000000000000000e+00  -1.9468729932702735e-02 -8.9767256320481950e-02 0.0000000000000000e+00  -2.1589832941717048e-02 -9.7366116493212446e-02 0.0000000000000000e+00  -3.5777531091144460e-04 -3.8310688602911009e-03 0.0000000000000000e+00  -2.9683665035045114e-02 -1.2531335817878431e-01 0.0000000000000000e+00  -5.4568670425717805e-04 -6.8575933955712263e-03 0.0000000000000000e+00  -1.1966772847251084e-03 -1.3597187419475435e-02 0.0000000000000000e+00  -1.7389318855801594e-02 -8.2238577087724779e-02 0.0000000000000000e+00  -2.3445447549290204e-03 -1.9233382258508697e-02 0.0000000000000000e+00  -1.5365959007860178e-02 -7.4804988286601065e-02 0.0000000000000000e+00  -3.3099034307775489e-03 -2.4575774442599046e-02 0.0000000000000000e+00  -4.7739624645362537e-03 -3.1863043203450715e-02 0.0000000000000000e+00  -1.3541158274045664e-02 -6.7267723335045049e-02 0.0000000000000000e+00  -1.1459595559966196e-02 -6.0181592299816337e-02 0.0000000000000000e+00  -6.0085318733350728e-03 -3.7767333641001988e-02 0.0000000000000000e+00  -7.5436965634103322e-03 -4.4288789621260434e-02 0.0000000000000000e+00  -9.6352537519263995e-03 -5.2925027066516216e-02 0.0000000000000000e+00  -8.0457473282378306e-04 -9.1033315736698140e-03 0.0000000000000000e+00  -2.5871110976824173e-02 -1.1273454813367344e-01 0.0000000000000000e+00  -8.5109015571187448e-03 -4.8065019060711749e-02 0.0000000000000000e+00  -1.8443194969746659e-03 -1.6498820054922883e-02 0.0000000000000000e+00  -4.0357444583968361e-03 -2.8551279247260707e-02 0.0000000000000000e+00  -1.4824281351600487e-04 -2.5943057102029415e-03 0.0000000000000000e+00  -3.1583911372278770e-02 -1.2945349229226707e-01 0.0000000000000000e+00  8.3563450722966490e-05 -6.6774511513007406e-04 0.0000000000000000e+00  -1.1296441869298039e-02 -6.4014881212179825e-02 0.0000000000000000e+00  -1.5147358463627473e-02 -7.8644208382179850e-02 0.0000000000000000e+00  -1.7183507845697055e-02 -8.6135024420122233e-02 0.0000000000000000e+00  -6.3260864964897875e-03 -3.4652170075903807e-02 0.0000000000000000e+00  -1.3179226909392138e-02 -7.1260405817347203e-02 0.0000000000000000e+00  -1.9272767532682263e-02 -9.3706483069149707e-02 0.0000000000000000e+00  -9.5166595084558957e-03 -5.6939244195948549e-02 0.0000000000000000e+00  -2.1401139916998303e-02 -1.0133567255379847e-01 0.0000000000000000e+00  -7.7617324743376771e-03 -4.0850992609876416e-02 0.0000000000000000e+00  -3.5644505916835006e-03 -2.1603482794754443e-02 0.0000000000000000e+00  -8.1829260894375662e-04 -5.4007637542012876e-03 0.0000000000000000e+00  -2.9511429854868491e-02 -1.2115928653881818e-01 0.0000000000000000e+00  -2.6188148421847388e-02 -1.0820282040113856e-01 0.0000000000000000e+00  -3.3024755938741376e-04 -1.1237480315190651e-02 0.0000000000000000e+00  -2.2421986403362414e-02 -1.0812392512362977e-01 0.0000000000000000e+00  -2.1880113760880662e-03 -1.1553857387389800e-02 0.0000000000000000e+00  -2.4873023352287645e-02 -1.0158120564438772e-01 0.0000000000000000e+00  -2.2719425920742185e-02 -9.3957745198691087e-02 0.0000000000000000e+00  -2.0594657962373284e-02 -8.6394003887572415e-02 0.0000000000000000e+00  -2.6656960506839692e-02 -1.2319483242120109e-01 0.0000000000000000e+00  3.6545601658893596e-04 -5.1037243838468315e-03 0.0000000000000000e+00  -1.6481463189685078e-02 -7.1541633582794306e-02 0.0000000000000000e+00  -1.8510710181030062e-02 -7.8913035180234972e-02 0.0000000000000000e+00  -3.6573358469862726e-03 -3.4295276159691530e-02 0.0000000000000000e+00  -1.3381085542795675e-03 -2.1229513540361789e-02 0.0000000000000000e+00  -1.3963767688947895e-02 -6.2203729308180987e-02 0.0000000000000000e+00  -1.2646105070226824e-02 -5.7250451129936819e-02 0.0000000000000000e+00  -4.9348613901736664e-03 -4.0507167070903731e-02 0.0000000000000000e+00  -8.3713152680842310e-05 -6.2385691734793719e-05 0.0000000000000000e+00  5.7097658098636464e-05 -4.7449839695956667e-05 0.0000000000000000e+00  -7.4729654159021199e-03 -5.1559492931582178e-02 0.0000000000000000e+00  -4.9845284346827553e-03 -2.5745941803558332e-02 0.0000000000000000e+00  -2.7608221545164613e-03 -1.4457957129362112e-02 0.0000000000000000e+00  -5.7266809853350668e-04 -1.9452536208688018e-03 0.0000000000000000e+00  -7.8751031938198868e-04 -3.3016501681748340e-03 0.0000000000000000e+00  -6.3312782662758920e-03 -4.6984072484862714e-02 0.0000000000000000e+00  -3.3118142758075146e-03 -1.7366752047915310e-02 0.0000000000000000e+00  -5.8830274095032966e-03 -2.9546214697579180e-02 0.0000000000000000e+00  -1.5853405416697121e-03 -8.1598377190515523e-03 0.0000000000000000e+00  -2.4457843162326125e-02 -1.1523350349835729e-01 0.0000000000000000e+00  -2.8491413371045066e-02 -1.1425437186329833e-01 0.0000000000000000e+00  1.8304117538974109e-04 -8.2752004877763817e-03 0.0000000000000000e+00  -3.8828391800127212e-04 -9.2085660445238859e-04 0.0000000000000000e+00  -2.7661317732360961e-02 -1.2842191349534651e-01 0.0000000000000000e+00  -1.1243211199089805e-02 -5.0579922446639634e-02 0.0000000000000000e+00  -9.8768961910071090e-03 -4.5979652190580707e-02 0.0000000000000000e+00  -1.7234317163165148e-04 -1.4749124663135342e-02 0.0000000000000000e+00  4.5517262107317135e-04 -1.9646956262075513e-03 0.0000000000000000e+00  5.2214069210277725e-04 -3.4359372822997413e-03 0.0000000000000000e+00  -1.9373412647299348e-03 -2.6391203174997515e-02 0.0000000000000000e+00  -4.2410404285598478e-04 -1.7781930981464029e-02 0.0000000000000000e+00  -2.3524556409042726e-03 -3.0179035496915054e-02 0.0000000000000000e+00  -2.4076161344355836e-04 -4.7873038570710430e-04 0.0000000000000000e+00  -2.9046828042336832e-02 -1.3196697647700545e-01 0.0000000000000000e+00  -2.4273083699867467e-02 -9.8513032921304006e-02 0.0000000000000000e+00  -2.2128435458184433e-02 -9.0911650368355773e-02 0.0000000000000000e+00  4.0175563868949339e-04 -6.2618534848824098e-03 0.0000000000000000e+00  -2.0016286985724718e-02 -8.3379049772544650e-02 0.0000000000000000e+00  -2.5558952914053530e-02 -1.2024813886521976e-01 0.0000000000000000e+00  -1.7949468308198806e-02 -7.5939754335248050e-02 0.0000000000000000e+00  -1.5949553481874598e-02 -6.8642497587512036e-02 0.0000000000000000e+00  -1.4976711758638056e-03 -2.3299252984359663e-02 0.0000000000000000e+00  -1.4939492397821092e-02 -6.4925120564295807e-02 0.0000000000000000e+00  -3.9499737348522492e-03 -3.6737263112404710e-02 0.0000000000000000e+00  -1.2172423681589464e-02 -5.4475455729296296e-02 0.0000000000000000e+00  -5.2768486263027386e-03 -4.3077500211884973e-02 0.0000000000000000e+00  -3.2229850522971330e-02 -1.2668260605862727e-01 0.0000000000000000e+00  -2.2951967836796303e-02 -1.1118396131136608e-01 0.0000000000000000e+00  -2.0726927314215432e-03 -1.0040256415644697e-02 0.0000000000000000e+00  3.7273921730067254e-04 -1.0223082525868878e-03 0.0000000000000000e+00  2.0087190733397914e-04 -3.8549277106714246e-04 0.0000000000000000e+00  -9.5682586853111078e-03 -6.2012574927646315e-02 0.0000000000000000e+00  -9.2152987536157430e-03 -4.2632738308000781e-02 0.0000000000000000e+00  -1.1391212167046539e-02 -6.9221429812867094e-02 0.0000000000000000e+00  -1.7417440787585173e-02 -9.1579517994525531e-02 0.0000000000000000e+00  -1.3357518267023773e-02 -7.6555977254464280e-02 0.0000000000000000e+00  -1.5356513199342803e-02 -8.4024418049360325e-02 0.0000000000000000e+00  -7.4600679147360559e-03 -3.6551280873624373e-02 0.0000000000000000e+00  -7.9453783879177130e-03 -5.5014627897074134e-02 0.0000000000000000e+00  -4.6623763602094285e-03 -2.3102417843024949e-02 0.0000000000000000e+00  -6.8540976467973301e-03 -3.2535825118328740e-02 0.0000000000000000e+00  -2.0854648742977704e-02 -1.0415126424124395e-01 0.0000000000000000e+00  -4.0521672997931519e-03 -1.9857745805950434e-02 0.0000000000000000e+00  -1.9857794469395368e-02 -9.9001772360019530e-02 0.0000000000000000e+00  -1.3998311319157095e-03 -6.2777372995107489e-03 0.0000000000000000e+00  -1.1270161227225702e-03 -4.4954178305723182e-03 0.0000000000000000e+00  -3.1301400822531494e-02 -1.2311419632867669e-01 0.0000000000000000e+00  -3.0054928464000496e-02 -1.1832781469918653e-01 0.0000000000000000e+00  -1.7239309474774027e-02 -8.8955269179571750e-02 0.0000000000000000e+00  -1.5190639763870287e-02 -8.1428908957149437e-02 0.0000000000000000e+00  -1.1157355194099652e-02 -6.6641116036800868e-02 0.0000000000000000e+00  -1.9195666244364713e-02 -9.6509907578656809e-02 0.0000000000000000e+00  -1.3207201749839659e-02 -7.3998788872291235e-02 0.0000000000000000e+00  -9.3215808038157634e-03 -5.9510288015348183e-02 0.0000000000000000e+00  -7.9122042592143851e-03 -3.8567542109224577e-02 0.0000000000000000e+00  2.5192902130672051e-04 -1.0081269534449259e-02 0.0000000000000000e+00  -2.7824672132033473e-02 -1.1037333245973668e-01 0.0000000000000000e+00  -2.6372504079308950e-02 -1.0553644740099084e-01 0.000000000000000