<?xml version="1.0"?>
<VTKFile type="UnstructuredGrid"  version="0.1"  >
<UnstructuredGrid>
<Piece  NumberOfPoints="439" NumberOfCells="725">
<Points>
<DataArray  type="Float64"  NumberOfComponents="3"  format="ascii">0.5784323378107629 0.08409601709687457 0  0.5866647236677595 0.1024949687556079 0  0.2489897949 0.21 0  0.2489897949 0.19 0  0.5825485831182768 0.09329552527744345 0  0.2496355385699469 0.2060260530378829 0  0.249959460510575 0.2020130349814059 0  0.2499594605105767 0.1979869650186357 0  0.24963553856995 0.1939739469621422 0  0.2540718597701639 0.2098793206351184 0  0.2591675198146285 0.2097465466457225 0  0.2642611616321873 0.209577115954664 0  0.2693442121100292 0.2092941060383544 0  0.2744172091551632 0.2089492826441004 0  0.2794916981616781 0.2085171590736623 0  0.2845486436818874 0.2080395918253022 0  0.2895869648534313 0.207482442518905 0  0.2946211933572989 0.2068621097378134 0  0.2996408708984053 0.2061789714160619 0  0.3046585233645781 0.2054107849228554 0  0.309673513356032 0.2046288192232356 0  0.3146578757127272 0.203752851936543 0  0.3196548335425874 0.2028243729119951 0  0.3246185315235369 0.2018508694279325 0  0.3295761229202901 0.2008080248332267 0  0.334520064728196 0.1997260210524679 0  0.3394470476504075 0.1985772462969605 0  0.3443584042220874 0.1974012843443728 0  0.3492572037645101 0.196168064625778 0  0.3541408257698779 0.1948955993521138 0  0.3590082056227594 0.193584394477949 0  0.3638680648736523 0.1922081641370269 0  0.3687255523240909 0.1908223197999952 0  0.3735590604785008 0.1893796724303915 0  0.3783794560095037 0.1879134853570723 0  0.3831871246225157 0.18640417019933 0  0.3879816071236034 0.1848640659570569 0  0.3927609667806216 0.1832949538117943 0  0.3975315096831923 0.1816766370425369 0  0.4023000855110478 0.1800535419342393 0  0.407043310825405 0.1783894862823471 0  0.4117782222921287 0.1766912571185573 0  0.4165098516735849 0.1749851977959383 0  0.4212196501908403 0.1732426801514849 0  0.4259297359610184 0.1714803677253506 0  0.4306213073818295 0.1696971809765851 0  0.4353098529800026 0.1678876617019995 0  0.4399840883711474 0.1660647582851657 0  0.4446479982187379 0.164219898570775 0  0.4493066836552955 0.1623591928514937 0  0.4539576733972879 0.1604805742517187 0  0.4585968655698367 0.1585869243407637 0  0.4632317416852882 0.1566796704072737 0  0.4678593512008182 0.1547571143453829 0  0.472476940196402 0.1528222152096935 0  0.4770900257098237 0.1508764175484489 0  0.4816969124228472 0.1489182183162513 0  0.4862958852818389 0.146950976922428 0  0.4908909974360987 0.1449752114095171 0  0.4954810479976227 0.1429899504858813 0  0.5000647279990361 0.1409977843759551 0  0.5046452493727857 0.1389993235535519 0  0.5092216445492465 0.1369938563072867 0  0.5137931106801934 0.1349835371188075 0  0.5183622996770527 0.1329685712746941 0  0.5229282680283519 0.130948926677843 0  0.5274909564120326 0.1289259080929239 0  0.5320509107225203 0.1269004748481333 0  0.5366081144190291 0.1248720797386048 0  0.5411635653325021 0.1228411215916882 0  0.5457183959352064 0.1208098793854694 0  0.5502708149304044 0.1187764009412419 0  0.5548226891313404 0.1167420035917062 0  0.5593731865224746 0.1147072116088074 0  0.5639226805705521 0.1126717103332219 0  0.5684718120762763 0.1106362869877096 0  0.5730203128598967 0.1086007714265255 0  0.5775685211770525 0.1065652627113122 0  0.5821166804684943 0.1045300755392977 0  0.5738843530122104 0.08613109373247561 0  0.5693365041440256 0.08816624980045218 0  0.5647888404902511 0.09020152557702538 0  0.5602414409026854 0.09223667443505498 0  0.5556942278462422 0.09427142099947841 0  0.5511473257750211 0.09630588488388578 0  0.5466006232171199 0.09833919987838464 0  0.5420544787272484 0.100371225115409 0  0.5375081319021746 0.102402253773377 0  0.5329619337333289 0.104430674389771 0  0.528415960882331 0.1064575401777349 0  0.5238690887717641 0.1084811629490308 0  0.5193222173308776 0.1105003020650064 0  0.5147761201244492 0.1125181308712955 0  0.5102280287119755 0.1145302412723995 0  0.5056796743934431 0.1165352010690134 0  0.5011320463322207 0.1185381135810908 0  0.4965808036808764 0.120532720501975 0  0.4920290616236941 0.1225176025034662 0  0.4874781182565724 0.1244997135141009 0  0.4829219095044014 0.1264705214379492 0  0.4783648300614174 0.1284285397268992 0  0.4738086035355786 0.1303829971808336 0  0.4692452594989439 0.132322857940155 0  0.4646806781601368 0.1342462481604875 0  0.4601162517023345 0.1361635709441418 0  0.4555455533257387 0.1380649297198731 0  0.4509719350991874 0.1399451624331584 0  0.4463978625038707 0.1418213315306013 0  0.4418120115284207 0.1436758814713652 0  0.4372258098853981 0.1455031519702287 0  0.4326402808007305 0.1473240318519776 0  0.4280444528226719 0.1491174850197131 0  0.423443049006833 0.1508971638885762 0  0.4188365678989537 0.1526529591841599 0  0.4142205455623601 0.1543797931614998 0  0.4096071981297285 0.1560893956001459 0  0.4049824915523919 0.1577699272447778 0  0.4003564701605921 0.159424582532059 0  0.395725881112083 0.1610491658991041 0  0.39108610421363 0.1626425480930312 0  0.3864343683731925 0.1642133509888506 0  0.3817737254521466 0.1657486457675898 0  0.3771228500378477 0.1672552891368588 0  0.372450157146536 0.1687241252413717 0  0.367783263375795 0.1701502271558229 0  0.3630982870892527 0.1715488255950607 0  0.3584094487546425 0.1728990839230916 0  0.3537078473049078 0.1742213841021339 0  0.3489963360871794 0.1754969360522589 0  0.344298871818886 0.1767370433296471 0  0.3395756947138639 0.177930130184194 0  0.3348637334365001 0.1790680733921398 0  0.3301241313955555 0.1801675852479799 0  0.3253824484392824 0.1811970214213047 0  0.3206446964454071 0.1822104742136343 0  0.3158882252219604 0.1831490012736381 0  0.311151573466409 0.1840358652677702 0  0.306385447236994 0.1848733356121181 0  0.3016192074813454 0.1856360470946378 0  0.2968428608247544 0.186357668867469 0  0.2920589819008996 0.1870072530677439 0  0.2872943798370596 0.1876072000146524 0  0.282499535661264 0.1881410596367499 0  0.2777281165902777 0.1886082661372114 0  0.2729337484474909 0.1889965579927273 0  0.2681594929386753 0.1893171484386905 0  0.2633688676363283 0.1895870795256805 0  0.2585757400417205 0.1897758063966831 0  0.2537838921875161 0.189872019091741 0  0.5804905161840881 0.08869574728742957 0  0.5846066108376132 0.09789527216177647 0  0.2589881616467495 0.200429153560346 0  0.5302373214490735 0.116681891474588 0  0.553319012692631 0.1063436184860779 0  0.2774742231200606 0.199562943349959 0  0.5031971179429089 0.1285370682229539 0  0.5168740510859468 0.122508696763373 0  0.2942854975394732 0.196189510356917 0  0.5665176325485661 0.09996521373807681 0  0.3101097195109688 0.1944442689384357 0  0.3363918550013313 0.1899301869631471 0  0.4894974778511012 0.1345096139278771 0  0.3539833582261153 0.1846063114388678 0  0.4757673833174406 0.1404064432507183 0  0.3689085653052098 0.1803736015067926 0  0.3872560478692974 0.1745724517963137 0  0.4615162749160003 0.1460131605640822 0  0.4478771024540411 0.1521064873050186 0  0.4010554569722867 0.1699861895208087 0  0.4154046072339943 0.1647123632039591 0  0.4334134217196284 0.157847380824754 0  0.3198017704452389 0.1926870972319401 0  0.5442790578276399 0.1104084460256329 0  0.4233764746523682 0.1615621387339815 0  0.3457534058929931 0.1869343614473545 0  0.3791582107601133 0.1773552536712379 0  0.2859871423933943 0.1979371051264107 0  0.57365937821333 0.09533552068774959 0  0.2680652466813098 0.2011288459556582 0  0.4556501654916449 0.1513854979777779 0  0.4832276770221799 0.1397876299131223 0  0.4969547782386621 0.1338475917029978 0  0.3935971715738357 0.1700604174767543 0  0.4694626265185098 0.1456418882193944 0  0.5106519793816116 0.1278427780018303 0  0.4417803928412367 0.156993339578678 0  0.5243269468698779 0.1217915554321509 0  0.4076320631952445 0.1651358743108192 0  0.3605384622965536 0.1804378990488328 0  0.3028146176144494 0.1933811407484435 0  0.558883222585597 0.1014019495186889 0  0.5357928967717319 0.1110374488215048 0  0.3281905581883768 0.1938696642610498 0  0.5366641211016527 0.1180543132039027 0  0.3287718300375039 0.1868485172677224 0  0.5238428630009329 0.115252123773697 0  0.510187008290614 0.1213020787248645 0  0.4965166665973825 0.1273053257595784 0  0.5634180626171915 0.1061354566820003 0  0.3015616087185918 0.1997696147918385 0  0.4691067987669781 0.1390956276463699 0  0.4828256723693798 0.1332435936548702 0  0.3934765721413173 0.1765976245597495 0  0.3600837493717295 0.1869497945571781 0  0.4512772613100677 0.1465094197077548 0  0.4415548160974045 0.1504438969778723 0  0.4076304824421761 0.1716784656032609 0  0.2557201674593633 0.1960332232254375 0  0.2550623452333606 0.2034021739424539 0  0.4311202759983228 0.1628215590820285 0  0.3715465393957834 0.1755910839289449 0  0.3388129552641711 0.1844116547817577 0  0.2808669149679073 0.1944595559154533 0  0.2906886499563537 0.1933979983797335 0  0.421619457934143 0.1666293405448463 0  0.3480262719809522 0.1820893403593212 0  0.381154501504624 0.1723836826591349 0  0.3155391998882703 0.1895677232823471 0  0.5492865341053483 0.1123542027120743 0  0.5463839128325129 0.1051456077325532 0  0.3165552638463199 0.1972318771792857 0  0.2707879319767245 0.1952143405536636 0  0.5728104423024194 0.1028679748647481 0  0.4279927663702666 0.1550636280744893 0  0.4184579658770172 0.1591408041802984 0  0.3404992491356787 0.1930199372311278 0  0.2812611718567625 0.2031848064146977 0  0.2918791053734923 0.2020120827145911 0  0.3741033084352948 0.1835294869499982 0  0.3500800658494007 0.1910001094889258 0  0.3837120032212487 0.181182347635149 0  0.2646266661182272 0.1958149849903862 0  0.5789912083991848 0.09934976250100365 0  0.5182850695458524 0.1171889541815369 0  0.5046251004656875 0.1232218511586099 0  0.3074293404068177 0.199318542263325 0  0.4909489907689856 0.1292009796030894 0  0.5582655044725449 0.1089620961406752 0  0.4772500945051998 0.1351068826409774 0  0.4635601645761769 0.1408965643640138 0  0.3658701451602374 0.1
[...]
<PointData  Vectors="f_20-1"> 
<DataArray  type="Float64"  Name="f_20-1"  NumberOfComponents="3" format="ascii">-2.1567662189237311e-02 -1.0590398290312536e-01 0.0000000000000000e+00  -1.3335276332240343e-02 -1.0750503124439210e-01 0.0000000000000000e+00  0.0000000000000000e+00 0.0000000000000000e+00 0.0000000000000000e+00  0.0000000000000000e+00 0.0000000000000000e+00 0.0000000000000000e+00  -1.7451416881722956e-02 -1.0670447472255659e-01 0.0000000000000000e+00  0.0000000000000000e+00 0.0000000000000000e+00 0.0000000000000000e+00  0.0000000000000000e+00 0.0000000000000000e+00 0.0000000000000000e+00  0.0000000000000000e+00 0.0000000000000000e+00 0.0000000000000000e+00  0.0000000000000000e+00 0.0000000000000000e+00 0.0000000000000000e+00  1.3825916453456309e-04 -1.2067936488163588e-04 0.0000000000000000e+00  2.9011350337426414e-04 -2.5345335427748246e-04 0.0000000000000000e+00  4.3994961529526940e-04 -4.2288404533596035e-04 0.0000000000000000e+00  5.7919438749925620e-04 -7.0589396164559830e-04 0.0000000000000000e+00  7.0838572700631503e-04 -1.0507173558995709e-03 0.0000000000000000e+00  8.3906902790277104e-04 -1.4828409263376329e-03 0.0000000000000000e+00  9.5220884249365802e-04 -1.9604081746978550e-03 0.0000000000000000e+00  1.0467243084147167e-03 -2.5175574810950342e-03 0.0000000000000000e+00  1.1371471066466611e-03 -3.1378902621866794e-03 0.0000000000000000e+00  1.2130189421345890e-03 -3.8210285839381736e-03 0.0000000000000000e+00  1.2868657026783115e-03 -4.5892150771445726e-03 0.0000000000000000e+00  1.3580499885139882e-03 -5.3711807767644329e-03 0.0000000000000000e+00  1.3986066395906642e-03 -6.2471480634569707e-03 0.0000000000000000e+00  1.4517587638325266e-03 -7.1756270880048790e-03 0.0000000000000000e+00  1.4716510391637504e-03 -8.1491305720674916e-03 0.0000000000000000e+00  1.4854367302985264e-03 -9.1919751667733415e-03 0.0000000000000000e+00  1.4855728325751838e-03 -1.0273978947532115e-02 0.0000000000000000e+00  1.4687500491791107e-03 -1.1422753703039457e-02 0.0000000000000000e+00  1.4363009152297765e-03 -1.2598715655627247e-02 0.0000000000000000e+00  1.3912947520340892e-03 -1.3831935374222039e-02 0.0000000000000000e+00  1.3311110517834402e-03 -1.5104400647886242e-02 0.0000000000000000e+00  1.2546851990466882e-03 -1.6415605522051003e-02 0.0000000000000000e+00  1.1707387443211773e-03 -1.7791835862973060e-02 0.0000000000000000e+00  1.0844204891413266e-03 -1.9177680200004807e-02 0.0000000000000000e+00  9.7412293792190703e-04 -2.0620327569608458e-02 0.0000000000000000e+00  8.5071276331598973e-04 -2.2086514642927678e-02 0.0000000000000000e+00  7.1457567070364915e-04 -2.3595829800670050e-02 0.0000000000000000e+00  5.6525246616964090e-04 -2.5135934042943040e-02 0.0000000000000000e+00  4.0080641755849399e-04 -2.6705046188205666e-02 0.0000000000000000e+00  2.2754361452173778e-04 -2.8323362957463100e-02 0.0000000000000000e+00  5.2313736749200376e-05 -2.9946458065760743e-02 0.0000000000000000e+00  -1.4826665450579866e-04 -3.1610513717652888e-02 0.0000000000000000e+00  -3.5716089340234698e-04 -3.3308742881442643e-02 0.0000000000000000e+00  -5.6933721756687158e-04 -3.5014802204061647e-02 0.0000000000000000e+00  -8.0334440592342942e-04 -3.6757319848515081e-02 0.0000000000000000e+00  -1.0370643413733698e-03 -3.8519632274649433e-02 0.0000000000000000e+00  -1.2892986261956851e-03 -4.0302819023414788e-02 0.0000000000000000e+00  -1.5445587336747641e-03 -4.2112338298000485e-02 0.0000000000000000e+00  -1.8141290481855222e-03 -4.3935241714834303e-02 0.0000000000000000e+00  -2.0940249062586995e-03 -4.5780101429224944e-02 0.0000000000000000e+00  -2.3791451753490686e-03 -4.7640807148506228e-02 0.0000000000000000e+00  -2.6719611389984716e-03 -4.9519425748281304e-02 0.0000000000000000e+00  -2.9765746720793107e-03 -5.1413075659236293e-02 0.0000000000000000e+00  -3.2855042622783851e-03 -5.3320329592726243e-02 0.0000000000000000e+00  -3.6017004523815378e-03 -5.5242885654617012e-02 0.0000000000000000e+00  -3.9279171624648354e-03 -5.7177784790306489e-02 0.0000000000000000e+00  -4.2586373546895963e-03 -5.9123582451551131e-02 0.0000000000000000e+00  -4.5955563473288165e-03 -6.1081781683748705e-02 0.0000000000000000e+00  -4.9403891939677055e-03 -6.3049023077572000e-02 0.0000000000000000e+00  -5.2890827453623531e-03 -6.5024788590482926e-02 0.0000000000000000e+00  -5.6428378894670351e-03 -6.7010049514118666e-02 0.0000000000000000e+00  -6.0029635937131716e-03 -6.9002215624044974e-02 0.0000000000000000e+00  -6.3662479256016121e-03 -7.1000676446448086e-02 0.0000000000000000e+00  -6.7336584547571330e-03 -7.3006143692713327e-02 0.0000000000000000e+00  -7.1059980294480287e-03 -7.5016462881192431e-02 0.0000000000000000e+00  -7.4806147382475031e-03 -7.7031428725305898e-02 0.0000000000000000e+00  -7.8584520925871915e-03 -7.9051073322157009e-02 0.0000000000000000e+00  -8.2395694145661700e-03 -8.1074091907076068e-02 0.0000000000000000e+00  -8.6234208097165244e-03 -8.3099525151866652e-02 0.0000000000000000e+00  -9.0100228188236178e-03 -8.5127920261395207e-02 0.0000000000000000e+00  -9.3983776109888093e-03 -8.7158878408311824e-02 0.0000000000000000e+00  -9.7873527139391847e-03 -8.9190120614530605e-02 0.0000000000000000e+00  -1.0178739424383909e-02 -9.1223599058758126e-02 0.0000000000000000e+00  -1.0570670929107691e-02 -9.3257996408293825e-02 0.0000000000000000e+00  -1.0963979243637144e-02 -9.5292788391192554e-02 0.0000000000000000e+00  -1.1358290901193897e-02 -9.7328289666778062e-02 0.0000000000000000e+00  -1.1752965101107137e-02 -9.9363713012290411e-02 0.0000000000000000e+00  -1.2148270023137250e-02 -1.0139922857347450e-01 0.0000000000000000e+00  -1.2543867411628336e-02 -1.0343473728868781e-01 0.0000000000000000e+00  -1.2939513825846237e-02 -1.0546992446070226e-01 0.0000000000000000e+00  -2.1171841282172820e-02 -1.0386890626752436e-01 0.0000000000000000e+00  -2.0775884444732575e-02 -1.0183375019954778e-01 0.0000000000000000e+00  -2.0379742392868071e-02 -9.9798474422974640e-02 0.0000000000000000e+00  -1.9983336274787343e-02 -9.7763325564945006e-02 0.0000000000000000e+00  -1.9586743625609301e-02 -9.5728579000521605e-02 0.0000000000000000e+00  -1.9189839991209764e-02 -9.3694115116114252e-02 0.0000000000000000e+00  -1.8792736843498203e-02 -9.1660800121615413e-02 0.0000000000000000e+00  -1.8395075627740506e-02 -8.9628774884590950e-02 0.0000000000000000e+00  -1.7997616747183486e-02 -8.7597746226622947e-02 0.0000000000000000e+00  -1.7600009210374461e-02 -8.5569325610228994e-02 0.0000000000000000e+00  -1.7202176355773254e-02 -8.3542459822265047e-02 0.0000000000000000e+00  -1.6805242760740611e-02 -8.1518837050969184e-02 0.0000000000000000e+00  -1.6408308496018393e-02 -7.9499697934993577e-02 0.0000000000000000e+00  -1.6010599996813757e-02 -7.7481869128704500e-02 0.0000000000000000e+00  -1.5614885703687423e-02 -7.5469758727600547e-02 0.0000000000000000e+00  -1.5219434316581222e-02 -7.3464798930986605e-02 0.0000000000000000e+00  -1.4823256672200998e-02 -7.1461886418909146e-02 0.0000000000000000e+00  -1.4430693617946199e-02 -6.9467279498024948e-02 0.0000000000000000e+00  -1.4038629969523602e-02 -6.7482397496533772e-02 0.0000000000000000e+00  -1.3645767631008191e-02 -6.5500286485899034e-02 0.0000000000000000e+00  -1.3258170677570697e-02 -6.3529478562050809e-02 0.0000000000000000e+00  -1.2871444414935564e-02 -6.1571460273100738e-02 0.0000000000000000e+00  -1.2483865235155611e-02 -5.9617002819166445e-02 0.0000000000000000e+00  -1.2103403566160870e-02 -5.7677142059844970e-02 0.0000000000000000e+00  -1.1724179199359875e-02 -5.5753751839512491e-02 0.0000000000000000e+00  -1.1344799951533872e-02 -5.3836429055858219e-02 0.0000000000000000e+00  -1.0971692622516821e-02 -5.1935070280126845e-02 0.0000000000000000e+00  -1.0601505143447435e-02 -5.0054837566841676e-02 0.0000000000000000e+00  -1.0231772033139660e-02 -4.8178668469398681e-02 0.0000000000000000e+00  -9.8738173029601708e-03 -4.6324118528634724e-02 0.0000000000000000e+00  -9.5162132403735309e-03 -4.4496848029771309e-02 0.0000000000000000e+00  -9.1579366194160360e-03 -4.2675968148022443e-02 0.0000000000000000e+00  -8.8099588918577765e-03 -4.0882514980286964e-02 0.0000000000000000e+00  -8.4675570020800780e-03 -3.9102836111423747e-02 0.0000000000000000e+00  -8.1302324043329294e-03 -3.7347040815840137e-02 0.0000000000000000e+00  -7.8024490352880949e-03 -3.5620206838500229e-02 0.0000000000000000e+00  -7.4719907622770856e-03 -3.3910604399854126e-02 0.0000000000000000e+00  -7.1528916339675024e-03 -3.2230072755222224e-02 0.0000000000000000e+00  -6.8351073201073876e-03 -3.0575417467941013e-02 0.0000000000000000e+00  -6.5218906629648495e-03 -2.8950834100895839e-02 0.0000000000000000e+00  -6.2178618557600165e-03 -2.7357451906968783e-02 0.0000000000000000e+00  -5.9257919905622439e-03 -2.5786649011149441e-02 0.0000000000000000e+00  -5.6426292059615643e-03 -2.4251354232410236e-02 0.0000000000000000e+00  -5.3496989146345642e-03 -2.2744710863141192e-02 0.0000000000000000e+00  -5.0785861002896728e-03 -2.1275874758628324e-02 0.0000000000000000e+00  -4.8016741653821738e-03 -1.9849772844177084e-02 0.0000000000000000e+00  -4.5428447462559102e-03 -1.8451174404939277e-02 0.0000000000000000e+00  -4.2878773752188237e-03 -1.7100916076908380e-02 0.0000000000000000e+00  -4.0456731193029630e-03 -1.5778615897866083e-02 0.0000000000000000e+00  -3.8133786314096369e-03 -1.4503063947741085e-02 0.0000000000000000e+00  -3.5670371940449580e-03 -1.3262956670352957e-02 0.0000000000000000e+00  -3.3464085934281100e-03 -1.2069869815805961e-02 0.0000000000000000e+00  -3.1145641651534597e-03 -1.0931926607860088e-02 0.0000000000000000e+00  -2.9103605004596905e-03 -9.8324147520202059e-03 0.0000000000000000e+00  -2.7082377510926404e-03 -8.8029785786953134e-03 0.0000000000000000e+00  -2.5021840393100641e-03 -7.7895257863655970e-03 0.0000000000000000e+00  -2.3148495570988665e-03 -6.8509987263618895e-03 0.0000000000000000e+00  -2.1076956069923064e-03 -5.9641347322297667e-03 0.0000000000000000e+00  -1.9300161307641529e-03 -5.1266643878819023e-03 0.0000000000000000e+00  -1.7524501807743567e-03 -4.3639529053622790e-03 0.0000000000000000e+00  -1.5849911317269069e-03 -3.6423311325308959e-03 0.0000000000000000e+00  -1.4250643499432785e-03 -2.9927469322560897e-03 0.0000000000000000e+00  -1.2458607081277243e-03 -2.3927999853475615e-03 0.0000000000000000e+00  -1.0968991782656684e-03 -1.8589403632501185e-03 0.0000000000000000e+00  -9.2451254359391809e-04 -1.3917338627885722e-03 0.0000000000000000e+00  -7.7507498073348168e-04 -1.0034420072726844e-03 0.0000000000000000e+00  -6.0552478391068861e-04 -6.8285156130952810e-04 0.0000000000000000e+00  -4.5234438061941774e-04 -4.1292047431945654e-04 0.0000000000000000e+00  -3.0166626958892358e-04 -2.2419360331686587e-04 0.0000000000000000e+00  -1.4970841814175996e-04 -1.2798090825905104e-04 0.0000000000000000e+00  -1.9509483815911811e-02 -1.0630425271254867e-01 0.0000000000000000e+00  -1.5393389162386743e-02 -1.0710472783819644e-01 0.0000000000000000e+00  1.4735115100213678e-05 -1.2323578249430828e-04 0.0000000000000000e+00  -1.2908912936234123e-02 -8.3318108525381018e-02 0.0000000000000000e+00  -1.4920776784185047e-02 -9.3626840094820779e-02 0.0000000000000000e+00  2.2830408258161151e-05 -1.2312485922336231e-03 0.0000000000000000e+00  -1.0652465433987861e-02 -7.1365274426138034e-02 0.0000000000000000e+00  -1.1806949407791130e-02 -7.7393645885723922e-02 0.0000000000000000e+00  -2.2539766629158390e-04 -3.1016804836215611e-03 0.0000000000000000e+00  -1.6260450589926499e-02 -9.9577766362258055e-02 0.0000000000000000e+00  -3.0312014595688442e-04 -5.5261896424620245e-03 0.0000000000000000e+00  -6.0832054052373957e-04 -1.0899274280249685e-02 0.0000000000000000e+00  -9.5206884089447975e-03 -6.5392728721213100e-02 0.0000000000000000e+00  -1.2982593447890710e-03 -1.5393688561193034e-02 0.0000000000000000e+00  -8.4193658257520204e-03 -5.9495899398366595e-02 0.0000000000000000e+00  -1.8288060853453932e-03 -1.9640636188576317e-02 0.0000000000000000e+00  -2.6322096409521975e-03 -2.5427548203769114e-02 0.0000000000000000e+00  -7.4694801332731986e-03 -5.3528511861587205e-02 0.0000000000000000e+00  -6.2806292301556049e-03 -4.7893512694891241e-02 0.0000000000000000e+00  -3.2980344295463005e-03 -3.0111467830115691e-02 0.0000000000000000e+00  -4.1464845099625780e-03 -3.5287636796146646e-02 0.0000000000000000e+00  -5.2885561448228063e-03 -4.2138381479923243e-02 0.0000000000000000e+00  -4.4550458043135407e-04 -7.3217869826997664e-03 0.0000000000000000e+00  -1.4126296280445098e-02 -8.9582669759724745e-02 0.0000000000000000e+00  -4.6902400363452636e-03 -3.8286766086842623e-02 0.0000000000000000e+00  -1.0125887335542410e-03 -1.3216733732082993e-02 0.0000000000000000e+00  -2.2144238057775064e-03 -2.2795841508214156e-02 0.0000000000000000e+00  -8.1195298815487976e-05 -2.1044394442074899e-03 0.0000000000000000e+00  -1.7463002964789479e-02 -1.0290939524712481e-01 0.0000000000000000e+00  7.5930535447280982e-05 -5.4627969107089549e-04 0.0000000000000000e+00  -5.9232747509829209e-03 -5.0864865351022408e-02 0.0000000000000000e+00  -8.0085974541655152e-03 -6.2462733415686811e-02 0.0000000000000000e+00  -9.1129133545362721e-03 -6.8402771625813985e-02 0.0000000000000000e+00  -3.7067944948417177e-03 -2.7689219194442102e-02 0.0000000000000000e+00  -6.9422308409798862e-03 -5.6608475109410694e-02 0.0000000000000000e+00  -1.0247129328433682e-02 -7.4407585326988060e-02 0.0000000000000000e+00  -4.9616302845290738e-03 -4.5257023750122041e-02 0.0000000000000000e+00  -1.1403578957006931e-02 -8.0458807896668927e-02 0.0000000000000000e+00  -4.5033199902871964e-03 -3.2613762360378426e-02 0.0000000000000000e+00  -2.1588638327817173e-03 -1.7311737622359092e-02 0.0000000000000000e+00  -5.5704004744662548e-04 -4.3684959227433939e-03 0.0000000000000000e+00  -1.6397748886225805e-02 -9.6347687152461350e-02 0.0000000000000000e+00  -1.4666959147324243e-02 -8.6091029652261897e-02 0.0000000000000000e+00  -2.2150263072805824e-06 -9.0018572651907811e-03 0.0000000000000000e+00  -1.1753780948093368e-02 -8.5786008365573554e-02 0.0000000000000000e+00  -1.4628970464949046e-03 -9.3111611628267799e-03 0.0000000000000000e+00  -1.4078222222878451e-02 -8.0873057890713973e-02 0.0000000000000000e+00  -1.2902659816351412e-02 -7.4823102939541225e-02 0.0000000000000000e+00  -1.1741584392739816e-02 -6.8819855904831376e-02 0.0000000000000000e+00  -1.4053468251518143e-02 -9.7739361653588333e-02 0.0000000000000000e+00  3.8051045363700082e-04 -4.1052035437552648e-03 0.0000000000000000e+00  -9.4886179894329310e-03 -5.7029554018034126e-02 0.0000000000000000e+00  -1.0601161503887253e-02 -6.2881588009536096e-02 0.0000000000000000e+00  -1.6368345304457385e-03 -2.7277193775847058e-02 0.0000000000000000e+00  -4.2301736068229049e-04 -1.6925023778416919e-02 0.0000000000000000e+00  -8.1056195356469102e-03 -4.9615761956644522e-02 0.0000000000000000e+00  -7.3777664252759065e-03 -4.5681284686528344e-02 0.0000000000000000e+00  -2.3143413464458799e-03 -3.2196352732338111e-02 0.0000000000000000e+00  -6.6132520833765029e-05 -5.2613800292010219e-05 0.0000000000000000e+00  4.7609202420704240e-05 -4.0469056657586475e-05 0.0000000000000000e+00  -3.6828716481460450e-03 -4.0952198682126885e-02 0.0000000000000000e+00  -3.0896622126265838e-03 -2.0635158306910366e-02 0.0000000000000000e+00  -1.8128813222592530e-03 -1.1635137412231314e-02 0.0000000000000000e+00  -4.3325315107602298e-04 -1.5872362785968421e-03 0.0000000000000000e+00  -5.7998878763566711e-04 -2.6836344851946660e-03 0.0000000000000000e+00  -3.0510756478461004e-03 -3.7323867261108062e-02 0.0000000000000000e+00  -2.1359037519607699e-03 -1.3957451834866541e-02 0.0000000000000000e+00  -3.6143141676453620e-03 -2.3663109535101076e-02 0.0000000000000000e+00  -1.0931686500857121e-03 -6.5917352810229259e-03 0.0000000000000000e+00  -1.2868466999992622e-02 -9.1427446547824837e-02 0.0000000000000000e+00  -1.6057474869464086e-02 -9.0930584628584471e-02 0.0000000000000000e+00  3.1576026300702783e-04 -6.6360785631834045e-03 0.0000000000000000e+00  -3.0078144403761356e-04 -7.5530377892019194e-04 0.0000000000000000e+00  -1.4490995337940790e-02 -1.0185481323833424e-01 0.0000000000000000e+00  -6.6751902740042005e-03 -4.0401517880761961e-02 0.0000000000000000e+00  -5.8716845307813514e-03 -3.6734893913607777e-02 0.0000000000000000e+00  2.4329805232640092e-04 -1.1774112797964451e-02 0.0000000000000000e+00  3.9267918066922302e-04 -1.5894353665679365e-03 0.0000000000000000e+00  4.7140205962014736e-04 -2.7688689925044058e-03 0.0000000000000000e+00  -6.6808417519840916e-04 -2.1005367094857237e-02 0.0000000000000000e+00  1.5841695951410685e-04 -1.4175231829704604e-02 0.0000000000000000e+00  -8.1628560798106408e-04 -2.3992993683487063e-02 0.0000000000000000e+00  -1.8782042727798830e-04 -3.9398930825118231e-04 0.0000000000000000e+00  -1.5333555967104418e-02 -1.0469177985791454e-01 0.0000000000000000e+00  -1.3812191499761957e-02 -7.8455555723550341e-02 0.0000000000000000e+00  -1.2640743463084908e-02 -7.2422658746475549e-02 0.0000000000000000e+00  4.3701484655194687e-04 -5.0282611239300824e-03 0.0000000000000000e+00  -1.1485436042940885e-02 -6.6443530301996970e-02 0.0000000000000000e+00  -1.3394799100890210e-02 -9.5384707246600905e-02 0.0000000000000000e+00  -1.0352915189874289e-02 -6.0537627264105776e-02 0.0000000000000000e+00  -9.2550329534494789e-03 -5.4743682526975680e-02 0.0000000000000000e+00  -4.6003249251640394e-04 -1.8559165636731396e-02 0.0000000000000000e+00  -8.6986426975650885e-03 -5.1791365016211559e-02 0.0000000000000000e+00  -1.7414955161671392e-03 -2.9201473525605058e-02 0.0000000000000000e+00  -7.1724583178512640e-03 -4.3492093299979953e-02 0.0000000000000000e+00  -2.4431437961226249e-03 -3.4220523355151952e-02 0.0000000000000000e+00  -1.8143991995220841e-02 -1.0080440476849789e-01 0.0000000000000000e+00  -1.1965379441582621e-02 -8.8191735117990916e-02 0.0000000000000000e+00  -1.4216299219932597e-03 -8.1040574139743214e-03 0.0000000000000000e+00  3.1345805467424931e-04 -8.3093344642897978e-04 0.0000000000000000e+00  1.6759577369793684e-04 -3.1630039929638582e-04 0.0000000000000000e+00  -4.7002317760207156e-03 -4.9205634962618976e-02 0.0000000000000000e+00  -5.5406595842187167e-03 -3.4083904877753340e-02 0.0000000000000000e+00  -5.6792200516337524e-03 -5.4915835104160121e-02 0.0000000000000000e+00  -8.9455543751961481e-03 -7.2639870772710058e-02 0.0000000000000000e+00  -6.7506783654939654e-03 -6.0730665077244825e-02 0.0000000000000000e+00  -7.8302628869747204e-03 -6.6650187244571099e-02 0.0000000000000000e+00  -4.4953982293610894e-03 -2.9234071976613374e-02 0.0000000000000000e+00  -3.8511718333809506e-03 -4.3668556194396642e-02 0.0000000000000000e+00  -2.9561594083048867e-03 -1.8539419858638502e-02 0.0000000000000000e+00  -4.2265892983020222e-03 -2.6056044215070143e-02 0.0000000000000000e+00  -1.0797363973627695e-02 -8.2605867224415735e-02 0.0000000000000000e+00  -2.6164588639720539e-03 -1.5954343495767617e-02 0.0000000000000000e+00  -1.0358623379203137e-02 -7.8550304438783788e-02 0.0000000000000000e+00  -9.9785325409457821e-04 -5.0836004464887025e-03 0.0000000000000000e+00  -8.2484323023204482e-04 -3.6493841904474910e-03 0.0000000000000000e+00  -1.7657171213192629e-02 -9.7978947723026719e-02 0.0000000000000000e+00  -1.7003391740527680e-02 -9.4188888028321094e-02 0.0000000000000000e+00  -8.9758647659179246e-03 -7.0593606416830074e-02 0.0000000000000000e+00  -7.8663422365992698e-03 -6.4626241826980388e-02 0.0000000000000000e+00  -5.6556204990743887e-03 -5.2897286975098427e-02 0.0000000000000000e+00  -1.0006522813877395e-02 -7.6576086165557722e-02 0.0000000000000000e+00  -6.7938928032744176e-03 -5.8736435564290576e-02 0.0000000000000000e+00  -4.6578130974740499e-03 -4.7245441163374202e-02 0.0000000000000000e+00  -4.7428493331818956e-03 -3.0835717154418889e-02 0.0000000000000000e+00  4.2351322236637687e-04 -8.0675437271446569e-03 0.0000000000000000e+00  -1.5793677334575408e-02 -8.7879407489535932e-02 0.0000000000000000e+00  -1.4983211535991428e-02 -8.4036191525366066e-02 0.0000000000000000e+00  3