<?xml version="1.0"?>
<VTKFile type="UnstructuredGrid"  version="0.1"  >
<UnstructuredGrid>
<Piece  NumberOfPoints="439" NumberOfCells="725">
<Points>
<DataArray  type="Float64"  NumberOfComponents="3"  format="ascii">0.5633748965474769 0.05662910633168079 0  0.5737727420455075 0.07376527168104334 0  0.2489897949 0.21 0  0.2489897949 0.19 0  0.5685738483212323 0.06519724350466088 0  0.2496355385699469 0.2060260530378829 0  0.249959460510575 0.2020130349814059 0  0.2499594605105767 0.1979869650186357 0  0.24963553856995 0.1939739469621422 0  0.2541031707885241 0.2098518905208471 0  0.2592341422691149 0.2096863359096262 0  0.2643622831627864 0.2094735272534169 0  0.2694754922922723 0.2091174424934487 0  0.2745748336174084 0.2086823910233031 0  0.2796733413209038 0.2081363300145929 0  0.2847481482569125 0.2075318074344999 0  0.289795994007821 0.2068264740448061 0  0.2948353917384135 0.2060400575552226 0  0.2998526791943683 0.2051734968281167 0  0.3048616426608322 0.2041975933502765 0  0.309866376427481 0.2032031477984783 0  0.3148248855456222 0.2020899576576622 0  0.3197949690336498 0.2009073517793134 0  0.3247185860764945 0.1996688540440783 0  0.3296276666257634 0.1983409105642676 0  0.3345152960864369 0.1969630407047374 0  0.339374033704446 0.1955001943414147 0  0.3442095440218989 0.1940029910194095 0  0.3490223081038281 0.1924327046236805 0  0.3538107315518313 0.1908127482732802 0  0.3585732762587692 0.1891439918879237 0  0.3633177039299946 0.1873913746619367 0  0.368057790204074 0.18562606067982 0  0.372759127925522 0.1837896752754027 0  0.3774400775437955 0.1819239160723769 0  0.3820984155982061 0.1800035006204761 0  0.3867351149753153 0.178044461491415 0  0.3913478048461323 0.1760494612536577 0  0.3959416136543673 0.1739913053880169 0  0.4005321150547562 0.1719269456564965 0  0.4050832454147664 0.1698126787179234 0  0.4096181556811258 0.1676547712102863 0  0.4141475239843289 0.1654869660118471 0  0.4186425533296434 0.163274715775642 0  0.4231347596665299 0.161036346503234 0  0.4275993657409721 0.1587734676973165 0  0.4320557083544296 0.1564764905480658 0  0.4364911178965672 0.154164175912304 0  0.4409093974053492 0.1518246703176514 0  0.4453182074028564 0.1494651653494382 0  0.4497139568444824 0.1470833922522619 0  0.4540917596343109 0.1446837844552104 0  0.4584616387003103 0.1422669928760492 0  0.4628194410980114 0.1398313108087633 0  0.4671620669989203 0.1373810598853937 0  0.4714969780432555 0.1349172316955822 0  0.4758217013401649 0.132438160221918 0  0.4801345719189636 0.1299485184285782 0  0.4844409772216279 0.1274483217866639 0  0.4887391840521901 0.1249365144013999 0  0.4930279330539848 0.1224166965752992 0  0.4973115224116912 0.119889139589933 0  0.5015885719137952 0.1173530850449657 0  0.505858409858828 0.1148114782916121 0  0.5101245283247624 0.1122641499435073 0  0.5143856979630567 0.1097112256887978 0  0.5186420631432408 0.1071544130129927 0  0.5228944926905016 0.1045948822561786 0  0.5271428942459685 0.1020319087155155 0  0.5313886403760666 0.09946585722204153 0  0.5356335452763056 0.09689952879549235 0  0.5398749996979577 0.09433065165721451 0  0.544115631991575 0.09176064600750626 0  0.5483544403755614 0.08919033370904295 0  0.5525918880105182 0.08661922664078235 0  0.5568288945038904 0.08404827182296867 0  0.5610651183779112 0.08147726479344557 0  0.5653010211845575 0.07890629291651019 0  0.5695369248696481 0.07633572922813581 0  0.5591390905479804 0.05919942139071341 0  0.5549035273366398 0.06176979019129746 0  0.5506682433795294 0.06434028250601144 0  0.5464333289243807 0.06691053488906022 0  0.5421986377518874 0.06948020958720769 0  0.5379643456858124 0.07204946088681889 0  0.533730184361305 0.07461715228603197 0  0.5294965783289545 0.07718305954744895 0  0.5252625921968614 0.07974768543961441 0  0.5210284293054364 0.08230885520888143 0  0.5167943452232709 0.08486794907462802 0  0.5125586188082377 0.0874229264971456 0  0.5083222162458433 0.08997202100973427 0  0.5040866288692517 0.09251926541471664 0  0.4998475601262704 0.09505932618293865 0  0.4956070270400901 0.09759004651719735 0  0.4913671252590538 0.1001179570070351 0  0.4871211808360191 0.1026355528465732 0  0.4828730252228384 0.105140460544029 0  0.4786254745800591 0.1076415941466759 0  0.4743692006651312 0.1101287461633481 0  0.4701097071859578 0.1125992394973282 0  0.4658507566051281 0.1150649120079387 0  0.4615800841635608 0.1175125801880251 0  0.4573050878318794 0.1199388090310407 0  0.4530292946821001 0.1223570465106016 0  0.4487426579093723 0.1247553436077026 0  0.4444487093564481 0.1271263706738205 0  0.4401535142875692 0.12949214216959 0  0.4358392858582668 0.1318314592607717 0  0.4315201526131134 0.1341349906915015 0  0.4272008540446859 0.1364300575665768 0  0.4228635676210001 0.1386907897709067 0  0.4185167379539826 0.1409344130363551 0  0.4141593962036849 0.1431475102754857 0  0.4097848723230303 0.1453241677376637 0  0.4054111662965704 0.1474778428144514 0  0.4010179647097795 0.149595268016132 0  0.3966190274627823 0.1516790552843047 0  0.3922094684622462 0.1537242106274319 0  0.3877830718318486 0.1557300289547091 0  0.3833375879203839 0.157708265199539 0  0.3788751925099634 0.159641496423524 0  0.374421539569899 0.161535942872452 0  0.369933812444446 0.1633843584453099 0  0.3654477391695997 0.1651762510861485 0  0.3609341931554557 0.1669350993755166 0  0.3564091974387183 0.168631667994441 0  0.3518637981725292 0.1702938172367306 0  0.3472995395869877 0.1718966585313129 0  0.3427494055146872 0.1734519525743046 0  0.3381599844156469 0.1749497165987273 0  0.3335788924287879 0.1763748653570348 0  0.3289574660873443 0.1777539080667742 0  0.3243259990059044 0.1790428929890865 0  0.3196979823396405 0.1803114701068554 0  0.3150383119337483 0.1814855980669443 0  0.3103997974185017 0.1825919979936388 0  0.3057187418132106 0.1836381503948901 0  0.3010315248106533 0.1845889232575611 0  0.2963280597491671 0.1854885961973271 0  0.2916099013168449 0.1862972576842012 0  0.2869134862370371 0.1870422508647817 0  0.2821741693763566 0.1877057352783708 0  0.2774614672142108 0.1882839637813396 0  0.2727156331452464 0.1887642772512215 0  0.2679926167827246 0.1891592066449978 0  0.263246912016041 0.1894920930920602 0  0.2584958397267827 0.1897238950165377 0  0.2537445907017153 0.1898409333035203 0  0.5659744197405844 0.06091314559920116 0  0.571173227256112 0.06948130378630639 0  0.2589886602095775 0.2004022325088876 0  0.5198498894134037 0.09473456542039621 0  0.5413476976060309 0.08168611216926895 0  0.277455112730168 0.1992626046343414 0  0.4946190749341248 0.1097392693187907 0  0.5073800730369601 0.1021240884034117 0  0.2941484844318217 0.1954175645566146 0  0.5535813722274566 0.07376061495368336 0  0.309859723906757 0.1930425530106844 0  0.3357907194166719 0.1871099413377096 0  0.4818194537985939 0.1172849289705361 0  0.3529199721232525 0.1806080305382483 0  0.4689676230196457 0.1247362079543356 0  0.3674109044859309 0.1752499131920051 0  0.3851040907026179 0.1679133878980404 0  0.4555508043339068 0.1319308815409349 0  0.4427710533554127 0.1394958759797166 0  0.3983446076404703 0.1620820349524777 0  0.4120225532759853 0.1554384780507755 0  0.4291099367017246 0.1467595164060892 0  0.31943264611793 0.1908165758768267 0  0.5329307932568176 0.08681366386569833 0  0.4195821045673062 0.151498059223477 0  0.3449057562430732 0.1835105386453638 0  0.3773232387630699 0.1713915236672857 0  0.2859179890232334 0.1974171525926259 0  0.5600553101239483 0.06830929857358531 0  0.2680738647263096 0.200998455104284 0  0.450369081332585 0.1379081438959429 0  0.4762588060018595 0.1232432788842565 0  0.4890996481942291 0.1157357228942337 0  0.3909683887330304 0.1628595280889231 0  0.4633541669815652 0.1306444697747674 0  0.5018908763750898 0.1081480900127378 0  0.4372863824335603 0.1450028531307277 0  0.5146457046834632 0.1005032328339931 0  0.4043770616827622 0.156635369801308 0  0.3591114548940895 0.1759729886232214 0  0.3025440690422011 0.1922916926201024 0  0.5462266980356524 0.07612217735762795 0  0.5246361067310085 0.08848055297568452 0  0.3278557371706705 0.1915287217811251 0  0.5263596954077607 0.09529760000913517 0  0.3280267092946433 0.1844981314082243 0  0.5133658840288757 0.09410867902287062 0  0.5006357496421231 0.1017486850841908 0  0.4878793510926434 0.1093297691297 0  0.5512859934209773 0.08023231044764829 0  0.3015477864888907 0.1987162097065271 0  0.4622409969901825 0.1242194607679509 0  0.4750854780386359 0.1168289433077149 0  0.3914553978628506 0.169349261927625 0  0.3591587093307992 0.1824765016484852 0  0.4454985270649503 0.1335834603696462 0  0.436343607657294 0.1385519424342332 0  0.4050207610377098 0.1631139102605553 0  0.25570169839893 0.1960223936284728 0  0.2550725576708163 0.2033942478548247 0  0.4273724041472423 0.1519245800169222 0  0.3696290924901686 0.1702836229494714 0  0.337842313332362 0.1814602016308177 0  0.2807213589730456 0.1940785390577926 0  0.2904725850296442 0.1927429868425194 0  0.4183670608061582 0.1566937927285414 0  0.3468261481488829 0.1785320784102569 0  0.3788663057407706 0.1662845863398366 0  0.3150309743908705 0.1879185875233623 0  0.5381114262458396 0.08811535606648811 0  0.5343576009489539 0.08136046497532104 0  0.3164205589442362 0.1955103804565012 0  0.2706963112548871 0.1950371850305562 0  0.5601491095358087 0.07584663363975612 0  0.4234551163399143 0.1445828087434411 0  0.4144681045130495 0.149610685084132 0  0.3400778247517918 0.189915293404408 0  0.2813279074605596 0.2027858091813254 0  0.291933698020783 0.2013060363551903 0  0.3728265703929045 0.1779485292248022 0  0.3494909314344003 0.1872448083455823 0  0.3821723596288379 0.1747843454941954 0  0.2645711744131866 0.1957238703450622 0  0.5658124655610525 0.07161084086668895 0  0.5081207433102084 0.09670088664755511 0  0.4953825722411755 0.10431917968615 0  0.3073949513735341 0.1980196409294699 0  0.4826147661780932 0.1118695481036802 0  0.5465515590278527 0.08365850240702237 0  0.4698052727406992 0.1193275168050386 0  0.4569769267810781 0.12664008
[...]
<PointData  Vectors="f_20-1"> 
<DataArray  type="Float64"  Name="f_20-1"  NumberOfComponents="3" format="ascii">-3.6625103452523247e-02 -1.3337089366831914e-01 0.0000000000000000e+00  -2.6227257954492378e-02 -1.3623472831895667e-01 0.0000000000000000e+00  0.0000000000000000e+00 0.0000000000000000e+00 0.0000000000000000e+00  0.0000000000000000e+00 0.0000000000000000e+00 0.0000000000000000e+00  -3.1426151678767389e-02 -1.3480275649533915e-01 0.0000000000000000e+00  0.0000000000000000e+00 0.0000000000000000e+00 0.0000000000000000e+00  0.0000000000000000e+00 0.0000000000000000e+00 0.0000000000000000e+00  0.0000000000000000e+00 0.0000000000000000e+00 0.0000000000000000e+00  0.0000000000000000e+00 0.0000000000000000e+00 0.0000000000000000e+00  1.6957018289469520e-04 -1.4810947915291906e-04 0.0000000000000000e+00  3.5673595786068097e-04 -3.1366409037384172e-04 0.0000000000000000e+00  5.4107114589422483e-04 -5.2647274658304208e-04 0.0000000000000000e+00  7.1047456974234141e-04 -8.8255750655127268e-04 0.0000000000000000e+00  8.6601018925153324e-04 -1.3176089766968161e-03 0.0000000000000000e+00  1.0207121871285455e-03 -1.8636699854070167e-03 0.0000000000000000e+00  1.1517134175187910e-03 -2.4681925655001043e-03 0.0000000000000000e+00  1.2557534628044095e-03 -3.1735259551939343e-03 0.0000000000000000e+00  1.3513454877612566e-03 -3.9599424447773817e-03 0.0000000000000000e+00  1.4248272380975393e-03 -4.8265031718833862e-03 0.0000000000000000e+00  1.4899849989324346e-03 -5.8024066497235349e-03 0.0000000000000000e+00  1.5509130599628978e-03 -6.7968522015217194e-03 0.0000000000000000e+00  1.5656164724857579e-03 -7.9100423423377302e-03 0.0000000000000000e+00  1.5918942548949311e-03 -9.0926482206865385e-03 0.0000000000000000e+00  1.5717055921212831e-03 -1.0331145955921646e-02 0.0000000000000000e+00  1.5369804357717530e-03 -1.1659089435732370e-02 0.0000000000000000e+00  1.4808041908161466e-03 -1.3036959295262640e-02 0.0000000000000000e+00  1.3957361032175773e-03 -1.4499805658585203e-02 0.0000000000000000e+00  1.2874407150413074e-03 -1.5997008980590494e-02 0.0000000000000000e+00  1.1563990913521147e-03 -1.7567295376319465e-02 0.0000000000000000e+00  1.0010168337367998e-03 -1.9187251726719774e-02 0.0000000000000000e+00  8.1975583505642161e-04 -2.0856008112076271e-02 0.0000000000000000e+00  6.2037780066356613e-04 -2.2608625338063220e-02 0.0000000000000000e+00  4.1665836912441060e-04 -2.4373939320179977e-02 0.0000000000000000e+00  1.7419038494309117e-04 -2.6210324724597237e-02 0.0000000000000000e+00  -8.8665702392224521e-05 -2.8076083927623039e-02 0.0000000000000000e+00  -3.7413335360595644e-04 -2.9996499379523964e-02 0.0000000000000000e+00  -6.8123968211841540e-04 -3.1955538508584944e-02 0.0000000000000000e+00  -1.0123555169307980e-03 -3.3950538746342233e-02 0.0000000000000000e+00  -1.3623524143032556e-03 -3.6008694611983111e-02 0.0000000000000000e+00  -1.7156567195423845e-03 -3.8073054343503457e-02 0.0000000000000000e+00  -2.1083320651443531e-03 -4.0187321282076534e-02 0.0000000000000000e+00  -2.5172275044052215e-03 -4.2345228789713654e-02 0.0000000000000000e+00  -2.9316649068228937e-03 -4.4513033988152845e-02 0.0000000000000000e+00  -3.3804412671202648e-03 -4.6725284224358080e-02 0.0000000000000000e+00  -3.8320406358618719e-03 -4.8963653496765992e-02 0.0000000000000000e+00  -4.3112402670530360e-03 -5.1226532302683404e-02 0.0000000000000000e+00  -4.7987033592477935e-03 -5.3523509451934140e-02 0.0000000000000000e+00  -5.3070995227656546e-03 -5.5835824087696023e-02 0.0000000000000000e+00  -5.8326257196474537e-03 -5.8175329682348571e-02 0.0000000000000000e+00  -6.3676214277881560e-03 -6.0534834650561808e-02 0.0000000000000000e+00  -6.9156776918039486e-03 -6.2916607747738107e-02 0.0000000000000000e+00  -7.4816806076050202e-03 -6.5316215544789627e-02 0.0000000000000000e+00  -8.0556072472562860e-03 -6.7733007123950847e-02 0.0000000000000000e+00  -8.6416105551882852e-03 -7.0168689191236616e-02 0.0000000000000000e+00  -9.2427903599465178e-03 -7.2618940114606290e-02 0.0000000000000000e+00  -9.8516850212578711e-03 -7.5082768304417777e-02 0.0000000000000000e+00  -1.0470767430011059e-02 -7.7561839778081995e-02 0.0000000000000000e+00  -1.1101702556843023e-02 -8.0051481571421751e-02 0.0000000000000000e+00  -1.1739102959833155e-02 -8.2551678213336047e-02 0.0000000000000000e+00  -1.2384701834899540e-02 -8.5063485598600136e-02 0.0000000000000000e+00  -1.3039758538764452e-02 -8.7583303424700831e-02 0.0000000000000000e+00  -1.3699974886696161e-02 -9.0110860410066995e-02 0.0000000000000000e+00  -1.4366731090208361e-02 -9.2646914955034312e-02 0.0000000000000000e+00  -1.5040698850813322e-02 -9.5188521708387847e-02 0.0000000000000000e+00  -1.5718386090537880e-02 -9.7735850056492712e-02 0.0000000000000000e+00  -1.6401022157882424e-02 -1.0028877431120213e-01 0.0000000000000000e+00  -1.7088462683357977e-02 -1.0284558698700728e-01 0.0000000000000000e+00  -1.7779838841735264e-02 -1.0540511774382134e-01 0.0000000000000000e+00  -1.8475242991884050e-02 -1.0796809128448449e-01 0.0000000000000000e+00  -1.9173302567424264e-02 -1.1053414277795846e-01 0.0000000000000000e+00  -1.9872203372840090e-02 -1.1310047120450770e-01 0.0000000000000000e+00  -2.0574554656830474e-02 -1.1566934834278551e-01 0.0000000000000000e+00  -2.1277728068873073e-02 -1.1823935399249373e-01 0.0000000000000000e+00  -2.1982725390550416e-02 -1.2080966629095700e-01 0.0000000000000000e+00  -2.2689083461227662e-02 -1.2338077335921759e-01 0.0000000000000000e+00  -2.3395882673493032e-02 -1.2595172817703132e-01 0.0000000000000000e+00  -2.4103464505122910e-02 -1.2852273520655444e-01 0.0000000000000000e+00  -2.4811367404123312e-02 -1.3109370708348983e-01 0.0000000000000000e+00  -2.5519269424692407e-02 -1.3366427077186413e-01 0.0000000000000000e+00  -3.5917103746402730e-02 -1.3080057860928657e-01 0.0000000000000000e+00  -3.5208861252118369e-02 -1.2823020980870251e-01 0.0000000000000000e+00  -3.4500339503589827e-02 -1.2565971749398858e-01 0.0000000000000000e+00  -3.3791448253092202e-02 -1.2308946511093977e-01 0.0000000000000000e+00  -3.3082333719964142e-02 -1.2051979041279233e-01 0.0000000000000000e+00  -3.2372820080418425e-02 -1.1795053911318114e-01 0.0000000000000000e+00  -3.1663175699312950e-02 -1.1538284771396809e-01 0.0000000000000000e+00  -3.0952976026034383e-02 -1.1281694045255104e-01 0.0000000000000000e+00  -3.0243156452496759e-02 -1.1025231456038555e-01 0.0000000000000000e+00  -2.9533513638267041e-02 -1.0769114479111855e-01 0.0000000000000000e+00  -2.8823792014833510e-02 -1.0513205092537195e-01 0.0000000000000000e+00  -2.8115712724267022e-02 -1.0257707350285439e-01 0.0000000000000000e+00  -2.7408309581052646e-02 -1.0002797899026569e-01 0.0000000000000000e+00  -2.6700091252011188e-02 -9.7480734585283349e-02 0.0000000000000000e+00  -2.5995354289392588e-02 -9.4940673817061352e-02 0.0000000000000000e+00  -2.5292081669934227e-02 -9.2409953482802676e-02 0.0000000000000000e+00  -2.4588177745367892e-02 -8.9882042992964886e-02 0.0000000000000000e+00  -2.3890316462803551e-02 -8.7364447153426783e-02 0.0000000000000000e+00  -2.3194666370379362e-02 -8.4859539455970967e-02 0.0000000000000000e+00  -2.2498411307521456e-02 -8.2358405853324074e-02 0.0000000000000000e+00  -2.1810879516840954e-02 -7.9871253836651890e-02 0.0000000000000000e+00  -2.1126567290395203e-02 -7.7400760502671806e-02 0.0000000000000000e+00  -2.0441712165606127e-02 -7.4935087992061278e-02 0.0000000000000000e+00  -1.9768578901543859e-02 -7.2487419811974832e-02 0.0000000000000000e+00  -1.9099769527617303e-02 -7.0061190968959339e-02 0.0000000000000000e+00  -1.8431756971768208e-02 -6.7642953489398389e-02 0.0000000000000000e+00  -1.7774588038883158e-02 -6.5244656392297318e-02 0.0000000000000000e+00  -1.7124730886186799e-02 -6.2873629326179542e-02 0.0000000000000000e+00  -1.6476120249441110e-02 -6.0507857830409933e-02 0.0000000000000000e+00  -1.5846542973114174e-02 -5.8168540739228267e-02 0.0000000000000000e+00  -1.5221870512658173e-02 -5.5865009308498498e-02 0.0000000000000000e+00  -1.4597363375460607e-02 -5.3569942433423209e-02 0.0000000000000000e+00  -1.3990844093529582e-02 -5.1309210229093398e-02 0.0000000000000000e+00  -1.3393868054930546e-02 -4.9065586963644908e-02 0.0000000000000000e+00  -1.2807404099601766e-02 -4.6852489724514335e-02 0.0000000000000000e+00  -1.2238122274617841e-02 -4.4675832262336339e-02 0.0000000000000000e+00  -1.1668022595435224e-02 -4.2522157185548637e-02 0.0000000000000000e+00  -1.1117418476579932e-02 -4.0404731983868035e-02 0.0000000000000000e+00  -1.0572550017917185e-02 -3.8320944715695332e-02 0.0000000000000000e+00  -1.0038303312801740e-02 -3.6275789372568062e-02 0.0000000000000000e+00  -9.5208942375414173e-03 -3.4269971045290844e-02 0.0000000000000000e+00  -9.0225724433708604e-03 -3.2291734800460978e-02 0.0000000000000000e+00  -8.5411621481448312e-03 -3.0358503576475973e-02 0.0000000000000000e+00  -8.0510093825832442e-03 -2.8464057127548029e-02 0.0000000000000000e+00  -7.5949308023796685e-03 -2.6615641554690202e-02 0.0000000000000000e+00  -7.1371983715774997e-03 -2.4823748913851459e-02 0.0000000000000000e+00  -6.7069386800528907e-03 -2.3064900624483412e-02 0.0000000000000000e+00  -6.2881286911429758e-03 -2.1368332005558984e-02 0.0000000000000000e+00  -5.8897222516816001e-03 -1.9706182763269426e-02 0.0000000000000000e+00  -5.5101751316013574e-03 -1.8103341468687091e-02 0.0000000000000000e+00  -5.1165034982437168e-03 -1.6548047425695392e-02 0.0000000000000000e+00  -4.7621188916450357e-03 -1.5050283401272679e-02 0.0000000000000000e+00  -4.3994051728656666e-03 -1.3625134642965140e-02 0.0000000000000000e+00  -4.0770258086708731e-03 -1.2246091933225869e-02 0.0000000000000000e+00  -3.7646871844706745e-03 -1.0957107010913547e-02 0.0000000000000000e+00  -3.4488981450765755e-03 -9.6885298931445405e-03 0.0000000000000000e+00  -3.1647628453109681e-03 -8.5144019330557017e-03 0.0000000000000000e+00  -2.8594716548995466e-03 -7.4080020063612226e-03 0.0000000000000000e+00  -2.5967215545474819e-03 -6.3618496051099779e-03 0.0000000000000000e+00  -2.3401328514664663e-03 -5.4110767424389904e-03 0.0000000000000000e+00  -2.0997922073142002e-03 -4.5114038026728316e-03 0.0000000000000000e+00  -1.8741449339980704e-03 -3.7027423157987645e-03 0.0000000000000000e+00  -1.6267543081502941e-03 -2.9577491352182797e-03 0.0000000000000000e+00  -1.4222654631729406e-03 -2.2942647216292415e-03 0.0000000000000000e+00  -1.1911619196607942e-03 -1.7160362186603626e-03 0.0000000000000000e+00  -9.9319028297794199e-04 -1.2357227487784727e-03 0.0000000000000000e+00  -7.7240093986150884e-04 -8.4079335500224141e-04 0.0000000000000000e+00  -5.7430000090672665e-04 -5.0790690793970370e-04 0.0000000000000000e+00  -3.8156658452680593e-04 -2.7610498346226209e-04 0.0000000000000000e+00  -1.8900990394257701e-04 -1.5906669647975817e-04 0.0000000000000000e+00  -3.4025580259415482e-02 -1.3408685440077708e-01 0.0000000000000000e+00  -2.8826772743888018e-02 -1.3551869621366652e-01 0.0000000000000000e+00  1.5233677928182093e-05 -1.5015683395276885e-04 0.0000000000000000e+00  -2.3296344971904040e-02 -1.0526543457957278e-01 0.0000000000000000e+00  -2.6892091870785069e-02 -1.1828434641162976e-01 0.0000000000000000e+00  3.7200183656502816e-06 -1.5315873078511880e-03 0.0000000000000000e+00  -1.9230508442771955e-02 -9.0163073330301227e-02 0.0000000000000000e+00  -2.1300927456777741e-02 -9.7778254245685176e-02 0.0000000000000000e+00  -3.6241077394306564e-04 -3.8736262839240295e-03 0.0000000000000000e+00  -2.9196710911035904e-02 -1.2578236514665150e-01 0.0000000000000000e+00  -5.5311575016859778e-04 -6.9279055702133703e-03 0.0000000000000000e+00  -1.2094561251831484e-03 -1.3719519905687177e-02 0.0000000000000000e+00  -1.7198712461452059e-02 -8.2617413678554130e-02 0.0000000000000000e+00  -2.3616454476518643e-03 -1.9391969461812573e-02 0.0000000000000000e+00  -1.5219126123546865e-02 -7.5166134694749281e-02 0.0000000000000000e+00  -3.3264669046242424e-03 -2.4764324503363799e-02 0.0000000000000000e+00  -4.7841668076316858e-03 -3.2086612102042417e-02 0.0000000000000000e+00  -1.3434950715366724e-02 -6.7610790884734567e-02 0.0000000000000000e+00  -1.1386678328784039e-02 -6.0504124020193270e-02 0.0000000000000000e+00  -6.0088837613627693e-03 -3.8015622398446650e-02 0.0000000000000000e+00  -7.5285384679715205e-03 -4.4561521949330177e-02 0.0000000000000000e+00  -9.5920411627265431e-03 -5.3226245898587987e-02 0.0000000000000000e+00  -8.1462890774020046e-04 -9.1923083378131522e-03 0.0000000000000000e+00  -2.5474560851267404e-02 -1.1317745191965936e-01 0.0000000000000000e+00  -8.4846101214072541e-03 -4.8350845597347036e-02 0.0000000000000000e+00  -1.8602383834742545e-03 -1.6640556534073592e-02 0.0000000000000000e+00  -4.0493958028209789e-03 -2.8759571512166369e-02 0.0000000000000000e+00  -1.5034866897635477e-04 -2.6243919779922842e-03 0.0000000000000000e+00  -3.1067071054171131e-02 -1.2993561736128909e-01 0.0000000000000000e+00  8.4548580447013863e-05 -6.7667054244505912e-04 0.0000000000000000e+00  -1.1204358910042860e-02 -6.4342219432857381e-02 0.0000000000000000e+00  -1.4977468474485908e-02 -7.9007084444552650e-02 0.0000000000000000e+00  -1.6968043398969294e-02 -8.6514640434578127e-02 0.0000000000000000e+00  -6.3355773356469488e-03 -3.4890108582273358e-02 0.0000000000000000e+00  -1.3050690377924543e-02 -7.1605893554037708e-02 0.0000000000000000e+00  -1.9008232334955414e-02 -9.4102273316080551e-02 0.0000000000000000e+00  -9.4556406922053724e-03 -5.7247510198072282e-02 0.0000000000000000e+00  -2.1084821143421605e-02 -1.0174713049482678e-01 0.0000000000000000e+00  -7.7583215027694887e-03 -4.1114266869889574e-02 0.0000000000000000e+00  -3.5858712352457535e-03 -2.1776648047970519e-02 0.0000000000000000e+00  -8.2758861969498834e-04 -5.4579440510845022e-03 0.0000000000000000e+00  -2.9054273436170362e-02 -1.2162745931352231e-01 0.0000000000000000e+00  -2.5823749188047588e-02 -1.0864792549808219e-01 0.0000000000000000e+00  -3.3703604401358350e-04 -1.1342799745115499e-02 0.0000000000000000e+00  -2.2058206641985333e-02 -1.0854272156034106e-01 0.0000000000000000e+00  -2.2080177893554734e-03 -1.1661547022324879e-02 0.0000000000000000e+00  -2.4555201194935511e-02 -1.0201650264154034e-01 0.0000000000000000e+00  -2.2453918464842289e-02 -9.4376496580214950e-02 0.0000000000000000e+00  -2.0378899897478851e-02 -8.6795412534709751e-02 0.0000000000000000e+00  -2.6185537447732273e-02 -1.2364250788794039e-01 0.0000000000000000e+00  3.6668822393595869e-04 -5.1586086290666376e-03 0.0000000000000000e+00  -1.6354419766228569e-02 -7.1905720896453140e-02 0.0000000000000000e+00  -1.8341355834631194e-02 -7.9296238356691404e-02 0.0000000000000000e+00  -3.6580088089124612e-03 -3.4525556407971579e-02 0.0000000000000000e+00  -1.3480574016125136e-03 -2.1398316687109852e-02 0.0000000000000000e+00  -1.3884353780764197e-02 -6.2541721294753078e-02 0.0000000000000000e+00  -1.2588974865386446e-02 -5.7573239230167460e-02 0.0000000000000000e+00  -4.9240627509121717e-03 -4.0760908075043768e-02 0.0000000000000000e+00  -8.4601581266933022e-05 -6.3443397256720624e-05 0.0000000000000000e+00  5.7821639876468327e-05 -4.8395144286723181e-05 0.0000000000000000e+00  -7.4307434992265014e-03 -5.1849177747233167e-02 0.0000000000000000e+00  -5.0071091182413464e-03 -2.5942619286383937e-02 0.0000000000000000e+00  -2.7835232540683831e-03 -1.4586590563171275e-02 0.0000000000000000e+00  -5.7880914593762788e-04 -1.9682531362576108e-03 0.0000000000000000e+00  -7.9605371434514599e-04 -3.3386460224087127e-03 0.0000000000000000e+00  -6.3034727758309395e-03 -4.7259415077413013e-02 0.0000000000000000e+00  -3.3360275840300479e-03 -1.7514713783930866e-02 0.0000000000000000e+00  -5.9025099314988514e-03 -2.9762205854399391e-02 0.0000000000000000e+00  -1.6013941474855901e-03 -8.2408710400077301e-03 0.0000000000000000e+00  -2.4043574859501430e-02 -1.1566629319341100e-01 0.0000000000000000e+00  -2.8083786753023129e-02 -1.1471572738581666e-01 0.0000000000000000e+00  1.8105536092332287e-04 -8.3575752859679168e-03 0.0000000000000000e+00  -3.9240216587499085e-04 -9.3245930202758812e-04 0.0000000000000000e+00  -2.7152328104551600e-02 -1.2887615446332618e-01 0.0000000000000000e+00  -1.1212840304356465e-02 -5.0882337211810187e-02 0.0000000000000000e+00  -9.8615458947490971e-03 -4.6265013009774147e-02 0.0000000000000000e+00  -1.7812633156048544e-04 -1.4878756624684283e-02 0.0000000000000000e+00  4.5941478446635353e-04 -1.9884325999402507e-03 0.0000000000000000e+00  5.2599470691083467e-04 -3.4749153519051407e-03 0.0000000000000000e+00  -1.9448222175887364e-03 -2.6586324820053193e-02 0.0000000000000000e+00  -4.3071745548638153e-04 -1.7930532973048158e-02 0.0000000000000000e+00  -2.3559292003918022e-03 -3.0390995824440666e-02 0.0000000000000000e+00  -2.4331213231853639e-04 -4.8510395357520016e-04 0.0000000000000000e+00  -2.8512298805236900e-02 -1.3243070149222924e-01 0.0000000000000000e+00  -2.3976517735406044e-02 -9.8943623257532143e-02 0.0000000000000000e+00  -2.1883271687596857e-02 -9.1325330218935435e-02 0.0000000000000000e+00  4.0262581326828544e-04 -6.3271624577852159e-03 0.0000000000000000e+00  -1.9819660633833228e-02 -8.3774961801406159e-02 0.0000000000000000e+00  -2.5108744545582526e-02 -1.2068830098025375e-01 0.0000000000000000e+00  -1.7797736954374952e-02 -7.6316993100044583e-02 0.0000000000000000e+00  -1.5838270748548336e-02 -6.9000166805873411e-02 0.0000000000000000e+00  -1.5065184066159381e-03 -2.3479021747585600e-02 0.0000000000000000e+00  -1.4847253840453645e-02 -6.5272196169678276e-02 0.0000000000000000e+00  -3.9459078158546297e-03 -3.6976707038403715e-02 0.0000000000000000e+00  -1.2127064002655747e-02 -5.4790618685723998e-02 0.0000000000000000e+00  -5.2592510880333778e-03 -4.3339492899622828e-02 0.0000000000000000e+00  -3.1732775243449113e-02 -1.2716963063954051e-01 0.0000000000000000e+00  -2.2566564672851175e-02 -1.1160639262828725e-01 0.0000000000000000e+00  -2.0922217965124086e-03 -1.0136395618832228e-02 0.0000000000000000e+00  3.7671236028393601e-04 -1.0355391982729621e-03 0.0000000000000000e+00  2.0321844085219209e-04 -3.9099799626182019e-04 0.0000000000000000e+00  -9.4835759007245966e-03 -6.2328793239347917e-02 0.0000000000000000e+00  -9.2100611372691477e-03 -4.2906036259004819e-02 0.0000000000000000e+00  -1.1271949519463181e-02 -6.9555218077150566e-02 0.0000000000000000e+00  -1.7166549242490312e-02 -9.1962542750546411e-02 0.0000000000000000e+00  -1.3198712037282921e-02 -7.6906866803824928e-02 0.0000000000000000e+00  -1.5153541073016655e-02 -8.4391614176395527e-02 0.0000000000000000e+00  -7.4683977736114543e-03 -3.6799141128351379e-02 0.0000000000000000e+00  -7.8898394319836546e-03 -5.5312700374673340e-02 0.0000000000000000e+00  -4.6874436843511429e-03 -2.3284936302213705e-02 0.0000000000000000e+00  -6.8706179996510398e-03 -3.2766503646495380e-02 0.0000000000000000e+00  -2.0518694211213998e-02 -1.0455915237935474e-01 0.0000000000000000e+00  -4.0781302762448188e-03 -2.0021296509811201e-02 0.0000000000000000e+00  -1.9557404671729076e-02 -9.9402456903696534e-02 0.0000000000000000e+00  -1.4142545138698497e-03 -6.3425713847268163e-03 0.0000000000000000e+00  -1.1388712027918014e-03 -4.5439282996800655e-03 0.0000000000000000e+00  -3.0830012510978191e-02 -1.2359494704938681e-01 0.0000000000000000e+00  -2.9617992806435203e-02 -1.1880005624407124e-01 0.0000000000000000e+00  -1.7005630411202718e-02 -8.9336338635077117e-02 0.0000000000000000e+00  -1.5003787430421429e-02 -8.1793758515708831e-02 0.0000000000000000e+00  -1.1051575602254147e-02 -6.6970913387914346e-02 0.0000000000000000e+00  -1.8912187918296564e-02 -9.6905759091803850e-02 0.0000000000000000e+00  -1.3063185426799266e-02 -7.4346865907183993e-02 0.0000000000000000e+00  -9.2484577662951557e-03 -5.9821729719646707e-02 0.0000000000000000e+00  -7.9162345984981290e-03 -3.8823759842996158e-02 0.0000000000000000e+00  2.4975499648326600e-04 -1.0177866323026575e-02 0.0000000000000000e+00  -2.7444765328159208e-02 -1.1082998218590946e-01 0.0000000000000000e+00  -2.6026924033724860e-02 -1.0598265179415237e-01 0.000000000000000