<?xml version="1.0"?>
<VTKFile type="UnstructuredGrid"  version="0.1"  >
<UnstructuredGrid>
<Piece  NumberOfPoints="439" NumberOfCells="725">
<Points>
<DataArray  type="Float64"  NumberOfComponents="3"  format="ascii">0.5695108054081457 0.0652652514801961 0  0.5790713186133196 0.08297281234734659 0  0.2489897949 0.21 0  0.2489897949 0.19 0  0.5742911034707682 0.07411906370657509 0  0.2496355385699469 0.2060260530378829 0  0.249959460510575 0.2020130349814059 0  0.2499594605105767 0.1979869650186357 0  0.24963553856995 0.1939739469621422 0  0.2541001061266479 0.209853941866347 0  0.2592268394088401 0.2096914056636507 0  0.2643506634753128 0.2094833274646163 0  0.2694600866003992 0.209136414636132 0  0.2745560324936096 0.2087135467647619 0  0.2796516038516381 0.2081837488463653 0  0.2847245007359808 0.2075981569960052 0  0.289772128433432 0.206915836511665 0  0.294812259936258 0.2061562200530536 0  0.2998320194516872 0.2053203398911304 0  0.3048451734935956 0.204380870962782 0  0.3098542772484547 0.203424273994626 0  0.3148212029488939 0.2023550190417441 0  0.3198000377882031 0.2012211952012667 0  0.3247359375567223 0.200034477404046 0  0.3296598182541129 0.1987644120882593 0  0.3345644270324115 0.1974478139790896 0  0.3394438506400338 0.1960520951279184 0  0.3443023951007968 0.1946247064847186 0  0.3491414655076663 0.1931298124121968 0  0.3539592201044403 0.1915891504684668 0  0.3587544310243584 0.1900037519532511 0  0.3635352042068204 0.1883421954821152 0  0.3683121459104498 0.1866694665436311 0  0.3730558851267631 0.1849319349788842 0  0.37778207831595 0.1831680406951451 0  0.3824894536872135 0.1813550197633241 0  0.3871785832867179 0.1795074039354763 0  0.3918474763477349 0.1776277251206242 0  0.396501612248837 0.1756924501784222 0  0.4011528431873013 0.173751958477259 0  0.4057712365690572 0.1717671101203956 0  0.4103769592270213 0.1697445525073297 0  0.4149780961324323 0.1677135653568653 0  0.4195511814084374 0.1656437353650955 0  0.4241226220593329 0.1635519344786402 0  0.4286714547968866 0.1614388484176604 0  0.4332143565092718 0.1592971186347018 0  0.4377402410689259 0.1571421469916929 0  0.4422528068970433 0.1549642941698187 0  0.4467581713721865 0.1527698928472259 0  0.4512534778979576 0.1505570255399087 0  0.45573475517406 0.1483291899191431 0  0.4602101817155926 0.1460874422706332 0  0.4646764624133006 0.1438302638649792 0  0.469131110554626 0.1415610567981826 0  0.4735800788736397 0.1392810144940416 0  0.4780214708093823 0.1369887313366952 0  0.4824539388281208 0.1346878735205289 0  0.4868817249274907 0.1323787406383484 0  0.4913035209572089 0.1300604464426175 0  0.495718326175106 0.1277357600171204 0  0.5001294505023604 0.1254051142515117 0  0.5045358692736162 0.1230678733932813 0  0.508937044506613 0.1207262678580638 0  0.5133356259141875 0.1183803441050454 0  0.5177306900815275 0.1160301458092002 0  0.5221223184611475 0.1136769756382254 0  0.5265111361219952 0.1113217110157379 0  0.5308971304113531 0.1089638486843925 0  0.5352812999312212 0.106603722876197 0  0.5396648573069373 0.1042433958346437 0  0.5440460108416685 0.101881157890132 0  0.5484266063610229 0.09951813113047257 0  0.5528059145687078 0.09715484426138012 0  0.5571842693986024 0.09479098804680273 0  0.5615623017834167 0.09242723252539253 0  0.565939774649816 0.09006344073339777 0  0.5703169986960093 0.08769967747300525 0  0.5746942015018218 0.08533620738847329 0  0.565133721742038 0.06762860355926882 0  0.5607567727576447 0.06999201648258502 0  0.5563800029205864 0.0723555281700874 0  0.552003477294194 0.07471891307344646 0  0.5476271126227337 0.07708192458044087 0  0.5432510356325391 0.07944466761787709 0  0.5388751040591157 0.08180634492599398 0  0.5344996342766218 0.08416680373743629 0  0.5301239542277857 0.08652635863243303 0  0.5257482923775958 0.0888834600857225 0  0.5213727883086189 0.09123908729527573 0  0.516996284965575 0.09359169948277615 0  0.5126195545633518 0.09594002436045516 0  0.5082435219535522 0.09828703173656848 0  0.5038652753535855 0.1006286446963359 0  0.4994863699294451 0.1029632816283501 0  0.4951080909399839 0.1052958445382414 0  0.4907257916274367 0.1076204607692917 0  0.4863424093339223 0.1099353955044873 0  0.481959700350638 0.1122474724403507 0  0.4775710241368292 0.1145485413492411 0  0.4731806410139366 0.1168366261092275 0  0.46879095505244 0.1191209715688333 0  0.4643930409962024 0.1213908468420226 0  0.4599927227298881 0.1236436560700456 0  0.4555921922642542 0.1258900544028993 0  0.4511840715991645 0.1281202528573837 0  0.4467713393753305 0.1303282091566668 0  0.442357983942839 0.1325318923518492 0  0.437930499235258 0.1347134010140921 0  0.4335006127716294 0.1368654555472064 0  0.4290710743573643 0.1390104205685561 0  0.4246283404567421 0.1411264226638756 0  0.4201785177141167 0.1432276965147327 0  0.4157213587970713 0.1453030920023518 0  0.4112513586509576 0.147347064015007 0  0.4067831629814881 0.1493715876600915 0  0.4022999558380554 0.1513645051484262 0  0.3978133393274516 0.1533282850623242 0  0.393319333362798 0.1552583611568075 0  0.3888125231116884 0.1571536072704854 0  0.3842904060506948 0.1590241127287293 0  0.3797553010345533 0.1608545745571496 0  0.3752294613758195 0.1626511901612716 0  0.3706754605649394 0.1644057124760617 0  0.3661251403798918 0.166110033894436 0  0.3615517074684906 0.1677837493086997 0  0.3569701648614494 0.1694010080222437 0  0.352371729970351 0.1709865148394592 0  0.3477582687557975 0.1725176336505894 0  0.3431592845143983 0.1740058360647349 0  0.3385265014396756 0.1754400655878941 0  0.333903696858201 0.1768078640972655 0  0.3292453315688557 0.1781317980705169 0  0.3245802201503203 0.1793719046912509 0  0.3199190755820079 0.1805927949258939 0  0.3152310616315855 0.1817249066631644 0  0.3105645654591192 0.1827937481291726 0  0.3058597824739768 0.1838048659570074 0  0.3011513273992057 0.1847257272378118 0  0.2964288644203291 0.1855977064806508 0  0.2916942981287053 0.1863828826817175 0  0.2869816172824562 0.1871074617822503 0  0.282229631535182 0.1877531546305075 0  0.2775044640131883 0.1883174949304231 0  0.2727490736781439 0.188786769391666 0  0.2680168372781906 0.1891737020786252 0  0.263263602011457 0.189499957668743 0  0.2585061733998956 0.1897279274834607 0  0.2537494506714587 0.1898438787007968 0  0.5719010001251842 0.06969213531968257 0  0.5766811712262646 0.07854596526727807 0  0.2589888914512136 0.2004028608854179 0  0.5239458190725507 0.1012829128756002 0  0.546157819106788 0.08927705052337816 0  0.2774613500526922 0.1992950195017017 0  0.4979084938304782 0.1150969188584998 0  0.5110753490395439 0.1080773527262155 0  0.2941819510875822 0.1955174428429498 0  0.5588252375026663 0.08194802934005416 0  0.3099276575181283 0.1932473031144892 0  0.3359684993222878 0.1875878911165723 0  0.4847154222258732 0.1220631411195553 0  0.353239131513214 0.1813398333778227 0  0.4714861691819192 0.1289554687392565 0  0.3678736998004845 0.1762457705223324 0  0.3857927798782801 0.1693004418900638 0  0.4577153250543596 0.1355945381411597 0  0.4445860104670095 0.1426662501947168 0  0.3992346351668443 0.1638086759655016 0  0.4131613332478785 0.1575602878592806 0  0.4306040542060992 0.1494371031075817 0  0.3195354954521185 0.1911060398952746 0  0.5374593895346874 0.09399458784320736 0  0.4208769840803665 0.153857436379546 0  0.3451566405996743 0.1841149426855274 0  0.3779022261606921 0.172597693565599 0  0.2859355971980049 0.1974800324409246 0  0.5655922589705921 0.07680920409518106 0  0.2680739873614567 0.2010100125956907 0  0.4522715906521358 0.1413769178186365 0  0.4788666993452205 0.1277846375208983 0  0.4920897518625009 0.1208488222769027 0  0.3918112863736185 0.1643844578968077 0  0.4655983060983612 0.1346362609854808 0  0.5052781790574127 0.1138508135772475 0  0.4388725649377989 0.147978729276974 0  0.5184416537877926 0.1068092247979401 0  0.4054511619283827 0.1585235592201513 0  0.3595351148412113 0.1768062064027265 0  0.302608250274393 0.192441242392095 0  0.5513309377334142 0.08394452097457696 0  0.5290574063627208 0.0952507660703561 0  0.3279638381374541 0.1919135222158468 0  0.5304460947417334 0.1021719827669511 0  0.3282215954603802 0.1848736145250926 0  0.5174734216720563 0.1003346667133949 0  0.5043283821079027 0.1073735898011252 0  0.4911664264562716 0.1143679702808835 0  0.5561969732712602 0.08832089562775772 0  0.3015654550878051 0.1988655615917219 0  0.4647587550054397 0.1281446264956342 0  0.4779797234270458 0.1212991127871647 0  0.3921248868713028 0.1709075968153107 0  0.3594578891551916 0.1833278480271231 0  0.4475595959469595 0.136843154638743 0  0.4381711841681656 0.1414725050754627 0  0.4059005356477294 0.1650423516657873 0  0.2557041983679312 0.1960220353640628 0  0.2550714663783292 0.2033938075085379 0  0.4286779501984836 0.1545566354710498 0  0.3702083943168084 0.1713138453497058 0  0.3381063918111971 0.1819559618844874 0  0.2807481248773009 0.1941202743089899 0  0.2905165633915502 0.1928234564114549 0  0.4194855079329428 0.1590295648126751 0  0.3471634853508839 0.1791565153482523 0  0.3795739680973845 0.1675130714945718 0  0.3151551939803281 0.1881625676482304 0  0.542589217063995 0.09556024722707235 0  0.5391643372074619 0.08859879179277855 0  0.3164740997493886 0.1957776883988296 0  0.2707112512127005 0.1950533897114989 0  0.5653056630553682 0.08437143893386261 0  0.4250070169841735 0.1470540777749917 0  0.4158081033073864 0.1517941177394574 0  0.3402236015547488 0.1904613811502876 0  0.2813226416036346 0.2028334463768632 0  0.2919342936068937 0.2013996759211819 0  0.3732455920197678 0.1790710966245425 0  0.3496913020029203 0.1879344496564805 0  0.3826842521322205 0.1761192082941841 0  0.2645796547302921 0.1957308313742326 0  0.5711983272045594 0.08041043923939321 0  0.5120843393099072 0.1026761707633538 0  0.4989342955881408 0.1096988389084918 0  0.3074210121638897 0.1982115419640812 0  0.4857650813929236 0.1166697453063336 0  0.5512768223158803 0.09151715110104293 0  0.4725681750428233 0.1235687415939911 0  0.4593711116549004 0.1303485416394196 
[...]
<PointData  Vectors="f_20-1"> 
<DataArray  type="Float64"  Name="f_20-1"  NumberOfComponents="3" format="ascii">-3.0489194591854420e-02 -1.2473474851980383e-01 0.0000000000000000e+00  -2.0928681386680231e-02 -1.2702718765265342e-01 0.0000000000000000e+00  0.0000000000000000e+00 0.0000000000000000e+00 0.0000000000000000e+00  0.0000000000000000e+00 0.0000000000000000e+00 0.0000000000000000e+00  -2.5708896529231584e-02 -1.2588093629342495e-01 0.0000000000000000e+00  0.0000000000000000e+00 0.0000000000000000e+00 0.0000000000000000e+00  0.0000000000000000e+00 0.0000000000000000e+00 0.0000000000000000e+00  0.0000000000000000e+00 0.0000000000000000e+00 0.0000000000000000e+00  0.0000000000000000e+00 0.0000000000000000e+00 0.0000000000000000e+00  1.6650552101851829e-04 -1.4605813365305836e-04 0.0000000000000000e+00  3.4943309758582046e-04 -3.0859433634935574e-04 0.0000000000000000e+00  5.2945145842067556e-04 -5.1667253538369054e-04 0.0000000000000000e+00  6.9506887786923181e-04 -8.6358536386793594e-04 0.0000000000000000e+00  8.4720906545267098e-04 -1.2864532352380820e-03 0.0000000000000000e+00  9.9897471786274811e-04 -1.8162511536346411e-03 0.0000000000000000e+00  1.1280658965870652e-03 -2.4018430039948191e-03 0.0000000000000000e+00  1.2318878884154500e-03 -3.0841634883349771e-03 0.0000000000000000e+00  1.3282136856057802e-03 -3.8437799469463714e-03 0.0000000000000000e+00  1.4041674954165043e-03 -4.6796601088697183e-03 0.0000000000000000e+00  1.4735158316958169e-03 -5.6191290372180269e-03 0.0000000000000000e+00  1.5388138809366342e-03 -6.5757260053739700e-03 0.0000000000000000e+00  1.5619338757573745e-03 -7.6449809582558575e-03 0.0000000000000000e+00  1.5969630094482413e-03 -8.7788047987332786e-03 0.0000000000000000e+00  1.5890570723491267e-03 -9.9655225959539243e-03 0.0000000000000000e+00  1.5691320641212868e-03 -1.1235587911740738e-02 0.0000000000000000e+00  1.5299351367907736e-03 -1.2552186020910397e-02 0.0000000000000000e+00  1.4655530388053939e-03 -1.3947904872081533e-02 0.0000000000000000e+00  1.3802917939392313e-03 -1.5375293515281430e-02 0.0000000000000000e+00  1.2755564951903503e-03 -1.6870187587803228e-02 0.0000000000000000e+00  1.1495053863457387e-03 -1.8410849531533255e-02 0.0000000000000000e+00  1.0009106006456489e-03 -1.9996248046748918e-02 0.0000000000000000e+00  8.3787807748931305e-04 -2.1657804517884800e-02 0.0000000000000000e+00  6.7101407550018851e-04 -2.3330533456368870e-02 0.0000000000000000e+00  4.7094758618424556e-04 -2.5068065021115783e-02 0.0000000000000000e+00  2.5333506976222940e-04 -2.6831959304854835e-02 0.0000000000000000e+00  1.6904735401516839e-05 -2.8644980236675940e-02 0.0000000000000000e+00  -2.3777137071585882e-04 -3.0492596064523658e-02 0.0000000000000000e+00  -5.1268401532816648e-04 -3.2372274879375780e-02 0.0000000000000000e+00  -8.0235381983353104e-04 -3.4307549821577833e-02 0.0000000000000000e+00  -1.0949285869972570e-03 -3.6248041522740949e-02 0.0000000000000000e+00  -1.4203409108535733e-03 -3.8232889879604326e-02 0.0000000000000000e+00  -1.7584239585096823e-03 -4.0255447492670238e-02 0.0000000000000000e+00  -2.1010927587194347e-03 -4.2286434643134647e-02 0.0000000000000000e+00  -2.4718131883262801e-03 -4.4356264634904559e-02 0.0000000000000000e+00  -2.8441782430588792e-03 -4.6448065521359820e-02 0.0000000000000000e+00  -3.2391512111384826e-03 -4.8561151582339500e-02 0.0000000000000000e+00  -3.6400552044056336e-03 -5.0702881365298186e-02 0.0000000000000000e+00  -4.0579763504070190e-03 -5.2857853008307053e-02 0.0000000000000000e+00  -4.4892162279533904e-03 -5.5035705830181303e-02 0.0000000000000000e+00  -4.9276574584580261e-03 -5.7230107152774087e-02 0.0000000000000000e+00  -5.3761566383287475e-03 -5.9442974460091315e-02 0.0000000000000000e+00  -5.8386850678559992e-03 -6.1670810080856925e-02 0.0000000000000000e+00  -6.3070642319739689e-03 -6.3912557729366756e-02 0.0000000000000000e+00  -6.7845892398991402e-03 -6.6169736135020668e-02 0.0000000000000000e+00  -7.2737468042408304e-03 -6.8438943201817412e-02 0.0000000000000000e+00  -7.7685841908736808e-03 -7.0718985505958398e-02 0.0000000000000000e+00  -8.2709979607936725e-03 -7.3011268663304776e-02 0.0000000000000000e+00  -8.7823356476857788e-03 -7.5312126479470984e-02 0.0000000000000000e+00  -9.2983552539703824e-03 -7.7621259361651526e-02 0.0000000000000000e+00  -9.8203649298808197e-03 -7.9939553557382470e-02 0.0000000000000000e+00  -1.0349365417643294e-02 -8.2264239982879586e-02 0.0000000000000000e+00  -1.0882046796026990e-02 -8.4594885748488294e-02 0.0000000000000000e+00  -1.1419433730387374e-02 -8.6932126606718646e-02 0.0000000000000000e+00  -1.1962064203028368e-02 -8.9273732141936138e-02 0.0000000000000000e+00  -1.2507288501112816e-02 -9.1619655894954563e-02 0.0000000000000000e+00  -1.3056030039411583e-02 -9.3969854190799770e-02 0.0000000000000000e+00  -1.3608207365451191e-02 -9.6323024361774562e-02 0.0000000000000000e+00  -1.4163195410241726e-02 -9.8678288984262078e-02 0.0000000000000000e+00  -1.4721006826499553e-02 -1.0103615131560749e-01 0.0000000000000000e+00  -1.5280643012269626e-02 -1.0339627712380303e-01 0.0000000000000000e+00  -1.5840891342208358e-02 -1.0575660416535636e-01 0.0000000000000000e+00  -1.6403543513119710e-02 -1.0811884210986798e-01 0.0000000000000000e+00  -1.6966753699425095e-02 -1.1048186886952742e-01 0.0000000000000000e+00  -1.7531251197403921e-02 -1.1284515573861983e-01 0.0000000000000000e+00  -1.8096702073143445e-02 -1.1520901195319720e-01 0.0000000000000000e+00  -1.8662475393966784e-02 -1.1757276747460746e-01 0.0000000000000000e+00  -1.9228808233218011e-02 -1.1993655926660224e-01 0.0000000000000000e+00  -1.9795389892671551e-02 -1.2230032252699477e-01 0.0000000000000000e+00  -2.0361992792518678e-02 -1.2466379261152664e-01 0.0000000000000000e+00  -2.9922472552345217e-02 -1.2237139644073115e-01 0.0000000000000000e+00  -2.9355615831113496e-02 -1.2000798351741494e-01 0.0000000000000000e+00  -2.8788579962532767e-02 -1.1764447182991261e-01 0.0000000000000000e+00  -2.8221299883278775e-02 -1.1528108692655353e-01 0.0000000000000000e+00  -2.7653858849117807e-02 -1.1291807541955914e-01 0.0000000000000000e+00  -2.7086130133691870e-02 -1.1055533238212294e-01 0.0000000000000000e+00  -2.6518256001502448e-02 -1.0819365507400608e-01 0.0000000000000000e+00  -2.5949920078367043e-02 -1.0583319626256370e-01 0.0000000000000000e+00  -2.5381794421572474e-02 -1.0347364136756693e-01 0.0000000000000000e+00  -2.4813650566107567e-02 -1.0111653991427748e-01 0.0000000000000000e+00  -2.4245348929485457e-02 -9.8760912704724244e-02 0.0000000000000000e+00  -2.3678046566929685e-02 -9.6408300517223836e-02 0.0000000000000000e+00  -2.3110971263544080e-02 -9.4059975639544796e-02 0.0000000000000000e+00  -2.2543198167710787e-02 -9.1712968263431505e-02 0.0000000000000000e+00  -2.1977639062077472e-02 -8.9371355303664107e-02 0.0000000000000000e+00  -2.1412738780579182e-02 -8.7036718371649946e-02 0.0000000000000000e+00  -2.0847212064437837e-02 -8.4704155461758565e-02 0.0000000000000000e+00  -2.0285705671385972e-02 -8.2379539230708287e-02 0.0000000000000000e+00  -1.9725282259295474e-02 -8.0064604495512684e-02 0.0000000000000000e+00  -1.9164185536942539e-02 -7.7752527559649273e-02 0.0000000000000000e+00  -1.8609056045142857e-02 -7.5451458650758946e-02 0.0000000000000000e+00  -1.8055633462416478e-02 -7.3163373890772487e-02 0.0000000000000000e+00  -1.7501513718294281e-02 -7.0879028431166710e-02 0.0000000000000000e+00  -1.6955622068902266e-02 -6.8609153157977332e-02 0.0000000000000000e+00  -1.6412134629608593e-02 -6.6356343929954417e-02 0.0000000000000000e+00  -1.5868859389614177e-02 -6.4109945597100676e-02 0.0000000000000000e+00  -1.5333174349091004e-02 -6.1879747142616189e-02 0.0000000000000000e+00  -1.4802100867304347e-02 -5.9671790843333274e-02 0.0000000000000000e+00  -1.4271650594171346e-02 -5.7468107648150739e-02 0.0000000000000000e+00  -1.3755329596122952e-02 -5.5286598985907855e-02 0.0000000000000000e+00  -1.3241410354142197e-02 -5.3134544452793621e-02 0.0000000000000000e+00  -1.2727143062782175e-02 -5.0989579431443922e-02 0.0000000000000000e+00  -1.2226071257787550e-02 -4.8873577336124470e-02 0.0000000000000000e+00  -1.1732088294796402e-02 -4.6772303485267237e-02 0.0000000000000000e+00  -1.1245441506215354e-02 -4.4696907997648284e-02 0.0000000000000000e+00  -1.0771635946690518e-02 -4.2652935984993028e-02 0.0000000000000000e+00  -1.0296025910517469e-02 -4.0628412339908472e-02 0.0000000000000000e+00  -9.8354273483040183e-03 -3.8635494851573825e-02 0.0000000000000000e+00  -9.3782381532479236e-03 -3.6671714937675834e-02 0.0000000000000000e+00  -8.9284384122498908e-03 -3.4741638843192514e-02 0.0000000000000000e+00  -8.4914429577016542e-03 -3.2846392729514610e-02 0.0000000000000000e+00  -8.0697543130599479e-03 -3.0975887271270652e-02 0.0000000000000000e+00  -7.6610536235548806e-03 -2.9145425442850401e-02 0.0000000000000000e+00  -7.2430875766627328e-03 -2.7348809838728380e-02 0.0000000000000000e+00  -6.8532826818863100e-03 -2.5594287523938372e-02 0.0000000000000000e+00  -6.4597971612854110e-03 -2.3889966105564021e-02 0.0000000000000000e+00  -6.0894243670180275e-03 -2.2216250691300309e-02 0.0000000000000000e+00  -5.7271612684118992e-03 -2.0598991977756314e-02 0.0000000000000000e+00  -5.3817904538597293e-03 -1.9013485160540789e-02 0.0000000000000000e+00  -5.0514459627915365e-03 -1.7482366349410611e-02 0.0000000000000000e+00  -4.7066244985326470e-03 -1.5994163935265159e-02 0.0000000000000000e+00  -4.3956018676164542e-03 -1.4559934412105922e-02 0.0000000000000000e+00  -4.0746007434525090e-03 -1.3192135902734436e-02 0.0000000000000000e+00  -3.7891603271595509e-03 -1.1868201929483136e-02 0.0000000000000000e+00  -3.5104660400547723e-03 -1.0628095308749093e-02 0.0000000000000000e+00  -3.2278049027092653e-03 -9.4072050741059905e-03 0.0000000000000000e+00  -2.9720131474737545e-03 -8.2750933368355341e-03 0.0000000000000000e+00  -2.6947036142820667e-03 -7.2062518708274140e-03 0.0000000000000000e+00  -2.4556808937812769e-03 -6.1951340429926161e-03 0.0000000000000000e+00  -2.2203302629139670e-03 -5.2742727621882986e-03 0.0000000000000000e+00  -1.9989875361522557e-03 -4.4022935193491616e-03 0.0000000000000000e+00  -1.7897481221376295e-03 -3.6171173182824525e-03 0.0000000000000000e+00  -1.5586232627311106e-03 -2.8925382177496942e-03 0.0000000000000000e+00  -1.3668033043475547e-03 -2.2468453694925415e-03 0.0000000000000000e+00  -1.1481651206833282e-03 -1.6825050695768659e-03 0.0000000000000000e+00  -9.5974975008039577e-04 -1.2132306083339733e-03 0.0000000000000000e+00  -7.4818044439545564e-04 -8.2629792137483356e-04 0.0000000000000000e+00  -5.5761000549073736e-04 -5.0004233125698237e-04 0.0000000000000000e+00  -3.7123291141391389e-04 -2.7207251653933799e-04 0.0000000000000000e+00  -1.8414993419911896e-04 -1.5612129920324685e-04 0.0000000000000000e+00  -2.8098999874815782e-02 -1.2530786468029567e-01 0.0000000000000000e+00  -2.3318828773735430e-02 -1.2645403473269484e-01 0.0000000000000000e+00  1.5464919564294691e-05 -1.4952845742240161e-04 0.0000000000000000e+00  -1.9200415312757037e-02 -9.8717087124368844e-02 0.0000000000000000e+00  -2.2081970370027949e-02 -1.1069340805752055e-01 0.0000000000000000e+00  9.9573408897952241e-06 -1.4991724404908502e-03 0.0000000000000000e+00  -1.5941089546418475e-02 -8.4805423790592124e-02 0.0000000000000000e+00  -1.7605651454193998e-02 -9.1824989922881434e-02 0.0000000000000000e+00  -3.2894411818262250e-04 -3.7737479975888085e-03 0.0000000000000000e+00  -2.3952845635826243e-02 -1.1759495076028070e-01 0.0000000000000000e+00  -4.8518213879725978e-04 -6.7231554664085877e-03 0.0000000000000000e+00  -1.0316762195672355e-03 -1.3241570126824479e-02 0.0000000000000000e+00  -1.4302744034172851e-02 -7.7839201529534940e-02 0.0000000000000000e+00  -2.0424860576904159e-03 -1.8660166622238159e-02 0.0000000000000000e+00  -1.2700579961273373e-02 -7.0946873909828387e-02 0.0000000000000000e+00  -2.8636715900705921e-03 -2.3768467173036507e-02 0.0000000000000000e+00  -4.0954776319694500e-03 -3.0699558110019044e-02 0.0000000000000000e+00  -1.1270429994913874e-02 -6.3947134284509724e-02 0.0000000000000000e+00  -9.5717212171871520e-03 -5.7333749805193013e-02 0.0000000000000000e+00  -5.1188562349887088e-03 -3.6288981385422837e-02 0.0000000000000000e+00  -6.3897584960783769e-03 -4.2439712140825155e-02 0.0000000000000000e+00  -8.0979236583519961e-03 -5.0548659197095461e-02 0.0000000000000000e+00  -7.1177957355182079e-04 -8.9028443193652409e-03 0.0000000000000000e+00  -2.0945964573397497e-02 -1.0599652794215034e-01 0.0000000000000000e+00  -7.1897306083469562e-03 -4.5991468441278070e-02 0.0000000000000000e+00  -1.6093540268730501e-03 -1.6036152493910084e-02 0.0000000000000000e+00  -3.4704084051987672e-03 -2.7553401613853040e-02 0.0000000000000000e+00  -1.3274049420482927e-04 -2.5615121296935794e-03 0.0000000000000000e+00  -2.5530122207527390e-02 -1.2143571183969333e-01 0.0000000000000000e+00  8.4671215594155663e-05 -6.6511305103840815e-04 0.0000000000000000e+00  -9.3018495904919965e-03 -6.0873445510163778e-02 0.0000000000000000e+00  -1.2369575131124926e-02 -7.4465725807910818e-02 0.0000000000000000e+00  -1.3977939730697504e-02 -8.1401541051909124e-02 0.0000000000000000e+00  -5.4926796950588858e-03 -3.3365178774388778e-02 0.0000000000000000e+00  -1.0806551261128504e-02 -6.7614102343324323e-02 0.0000000000000000e+00  -1.5620929652632497e-02 -8.8399549751570938e-02 0.0000000000000000e+00  -7.8694581879668688e-03 -5.4271634051825980e-02 0.0000000000000000e+00  -1.7288872039092292e-02 -9.5441138530879766e-02 0.0000000000000000e+00  -6.6842212571490058e-03 -3.9226077451046296e-02 0.0000000000000000e+00  -3.1622112881239815e-03 -2.0943430268465391e-02 0.0000000000000000e+00  -7.6340738750304432e-04 -5.3083942790918322e-03 0.0000000000000000e+00  -2.3950033738408504e-02 -1.1380511569657331e-01 0.0000000000000000e+00  -2.1402449556335332e-02 -1.0187771240341062e-01 0.0000000000000000e+00  -2.2893507722999330e-04 -1.0957999310393792e-02 0.0000000000000000e+00  -1.7971807308012736e-02 -1.0166833880252510e-01 0.0000000000000000e+00  -2.0131316236185956e-03 -1.1286063905456549e-02 0.0000000000000000e+00  -2.0447663551754910e-02 -9.5790514951016037e-02 0.0000000000000000e+00  -1.8761285999062710e-02 -8.8751591863280480e-02 0.0000000000000000e+00  -1.7091824533850695e-02 -8.1757211383526276e-02 0.0000000000000000e+00  -2.1274557597449475e-02 -1.1555392270783096e-01 0.0000000000000000e+00  3.8435682285025292e-04 -5.0092567438718497e-03 0.0000000000000000e+00  -1.3836661750971398e-02 -6.7980555168769857e-02 0.0000000000000000e+00  -1.5447110446221282e-02 -7.4826068877241650e-02 0.0000000000000000e+00  -2.9885198004602179e-03 -3.2967221520285861e-02 0.0000000000000000e+00  -1.0488775772202043e-03 -2.0546970308471930e-02 0.0000000000000000e+00  -1.1823284898755065e-02 -5.9282027025656318e-02 0.0000000000000000e+00  -1.0761398354514864e-02 -5.4652676588937930e-02 0.0000000000000000e+00  -4.0442881408925572e-03 -3.8832466669811716e-02 0.0000000000000000e+00  -8.2101612265794385e-05 -6.3801661666722126e-05 0.0000000000000000e+00  5.6730347389345589e-05 -4.8835490573585419e-05 0.0000000000000000e+00  -6.1251974479851938e-03 -4.9217122293105639e-02 0.0000000000000000e+00  -4.4278072916016731e-03 -2.4912396886149494e-02 0.0000000000000000e+00  -2.5194447752332353e-03 -1.4090830309501616e-02 0.0000000000000000e+00  -5.5204324168235252e-04 -1.9265178850603191e-03 0.0000000000000000e+00  -7.5207535243912568e-04 -3.2581764534732149e-03 0.0000000000000000e+00  -5.1850256490463490e-03 -4.4923642993279278e-02 0.0000000000000000e+00  -2.9986903820290378e-03 -1.6890276845935453e-02 0.0000000000000000e+00  -5.1948475748848618e-03 -2.8533720699664124e-02 0.0000000000000000e+00  -1.4771745580279597e-03 -7.9968909151396182e-03 0.0000000000000000e+00  -1.9565784041346054e-02 -1.0822140203282676e-01 0.0000000000000000e+00  -2.3277050494515041e-02 -1.0747740056835915e-01 0.0000000000000000e+00  2.3459616607571199e-04 -8.0902673436395733e-03 0.0000000000000000e+00  -3.7746220806162447e-04 -9.1625462108492278e-04 0.0000000000000000e+00  -2.1995774584992012e-02 -1.2035134916921969e-01 0.0000000000000000e+00  -9.6609396600972793e-03 -4.8411068180259607e-02 0.0000000000000000e+00  -8.5215471004121968e-03 -4.4081580354448743e-02 0.0000000000000000e+00  -3.2349528603496822e-05 -1.4332668878804756e-02 0.0000000000000000e+00  4.5414892754124274e-04 -1.9407954044024238e-03 0.0000000000000000e+00  5.2659029302147249e-04 -3.3812757859136458e-03 0.0000000000000000e+00  -1.5258005907254374e-03 -2.5463757420312913e-02 0.0000000000000000e+00  -2.3034688696633673e-04 -1.7240891662149895e-02 0.0000000000000000e+00  -1.8440366970092616e-03 -2.9056133024451879e-02 0.0000000000000000e+00  -2.3483181521304717e-04 -4.7814292440478420e-04 0.0000000000000000e+00  -2.3126437161729872e-02 -1.2363110311952498e-01 0.0000000000000000e+00  -2.0012921735707276e-02 -9.2968339141733455e-02 0.0000000000000000e+00  -1.8331548340631627e-02 -8.5945670996593657e-02 0.0000000000000000e+00  4.2868660362388564e-04 -6.1352614231739277e-03 0.0000000000000000e+00  -1.6669345419002859e-02 -7.8974764598752731e-02 0.0000000000000000e+00  -2.0383481257554893e-02 -1.1282965228623319e-01 0.0000000000000000e+00  -1.5034834652250782e-02 -7.2075768311092081e-02 0.0000000000000000e+00  -1.3444085874725996e-02 -6.5291705251569854e-02 0.0000000000000000e+00  -1.1644863224828399e-03 -2.2520017683532650e-02 0.0000000000000000e+00  -1.2636312373586454e-02 -6.1828084913408896e-02 0.0000000000000000e+00  -3.2081320471055060e-03 -3.5271275402326836e-02 0.0000000000000000e+00  -1.0406835492150450e-02 -5.2062349912817676e-02 0.0000000000000000e+00  -4.3004099578514750e-03 -4.1247198627993260e-02 0.0000000000000000e+00  -2.6221055079453284e-02 -1.1893595248247554e-01 0.0000000000000000e+00  -1.8342606901734455e-02 -1.0447663054638665e-01 0.0000000000000000e+00  -1.9231854110477690e-03 -9.8229609566025094e-03 0.0000000000000000e+00  3.7004248151081229e-04 -1.0142930739858147e-03 0.0000000000000000e+00  1.9927642263054853e-04 -3.8531506496520249e-04 0.0000000000000000e+00  -7.7651763657904643e-03 -5.8969670613259605e-02 0.0000000000000000e+00  -7.9964260343406719e-03 -4.0932497717339290e-02 0.0000000000000000e+00  -9.2247824739420774e-03 -6.5678585034137912e-02 0.0000000000000000e+00  -1.4000322548806067e-02 -8.6389928163691246e-02 0.0000000000000000e+00  -1.0795605665016417e-02 -7.2488356869857842e-02 0.0000000000000000e+00  -1.2377264615308740e-02 -7.9405423665613609e-02 0.0000000000000000e+00  -6.5117358529398371e-03 -3.5180084811095289e-02 0.0000000000000000e+00  -6.4668585308137226e-03 -5.2439986596684918e-02 0.0000000000000000e+00  -4.1768152106834580e-03 -2.2391608313739271e-02 0.0000000000000000e+00  -6.0406364974843248e-03 -3.1380442433290349e-02 0.0000000000000000e+00  -1.6687592092044276e-02 -9.7989481627053718e-02 0.0000000000000000e+00  -3.6597011279749067e-03 -1.9285075926107443e-02 0.0000000000000000e+00  -1.5964791702867846e-02 -9.3255842987740145e-02 0.0000000000000000e+00  -1.3187993450472035e-03 -6.1669644189300725e-03 0.0000000000000000e+00  -1.0720088054558740e-03 -4.4276461260385532e-03 0.0000000000000000e+00  -2.5507776545322110e-02 -1.1565166497823595e-01 0.0000000000000000e+00  -2.4550153222246060e-02 -1.1124592196718705e-01 0.0000000000000000e+00  -1.3930138382407404e-02 -8.3984229623798284e-02 0.0000000000000000e+00  -1.2314488688755183e-02 -7.7021447748741256e-02 0.0000000000000000e+00  -9.0911460524975285e-03 -6.3292832432513324e-02 0.0000000000000000e+00  -1.5449966989214456e-02 -9.0957357316577531e-02 0.0000000000000000e+00  -1.0742419245046115e-02 -7.0133956819881216e-02 0.0000000000000000e+00  -7.6124043658454734e-03 -5.6647320482923529e-02 0.0000000000000000e+00  -6.8847779282459626e-03 -3.7086801219154933e-02 0.0000000000000000e+00  3.1952138983776587e-04 -9.8352448787582640e-03 0.0000000000000000e+00  -2.2813556770595728e-02 -1.0391601766128211e-01 0.0000000000000000e+00  -2.1669048788035293e-02 -9.9453093012877344e-02 0.0000000000000000e