<?xml version="1.0"?>
<VTKFile type="UnstructuredGrid"  version="0.1"  >
<UnstructuredGrid>
<Piece  NumberOfPoints="439" NumberOfCells="725">
<Points>
<DataArray  type="Float64"  NumberOfComponents="3"  format="ascii">0.5635172162318335 0.05963199762266984 0  0.5736676553497458 0.0767452792001395 0  0.2489897949 0.21 0  0.2489897949 0.19 0  0.5685924625641584 0.06818869947240377 0  0.2496355385699469 0.2060260530378829 0  0.249959460510575 0.2020130349814059 0  0.2499594605105767 0.1979869650186357 0  0.24963553856995 0.1939739469621422 0  0.2540994220633407 0.2098554432107058 0  0.2592263570745188 0.2096938501545814 0  0.2643506049003757 0.2094860923484276 0  0.2694604546945694 0.209138176236281 0  0.2745569111414629 0.2087129973463694 0  0.2796527931059466 0.2081791826934106 0  0.2847256019814897 0.2075880926259989 0  0.2897722276883697 0.2068982103244159 0  0.2948107697854815 0.206128872040189 0  0.2998277970279823 0.2052809282895069 0  0.3048368350573891 0.2043257670250138 0  0.3098417638387768 0.2033523382283177 0  0.3148015085851199 0.2022624002936326 0  0.3197726269990382 0.2011042768431239 0  0.3246981558989628 0.1998912286138918 0  0.3296093574182242 0.1985903593054564 0  0.3344994458953058 0.1972403965886741 0  0.3393610070780527 0.195807001486507 0  0.3441996321815913 0.1943398044641564 0  0.3490156695666846 0.1928008123997056 0  0.3538075559262784 0.1912130501580128 0  0.3585737375537404 0.1895773819077794 0  0.3633215318649051 0.1878593952246992 0  0.3680649302372604 0.1861288089486546 0  0.3727696607727591 0.1843286349100412 0  0.3774540151204697 0.1824996776899767 0  0.3821155591123773 0.1806171500445776 0  0.3867553442163982 0.1786968466182194 0  0.3913710264383691 0.1767414350259147 0  0.3959672013118163 0.1747242314729774 0  0.400559983056679 0.172700859627553 0  0.4051132456420188 0.1706290465533444 0  0.4096497114530891 0.1685146462481056 0  0.4141804997411346 0.1663905443407631 0  0.4186766458907976 0.1642234775750035 0  0.4231693816534967 0.1620308022166782 0  0.427634442467004 0.1598146613998293 0  0.4320905260277736 0.1575652543175103 0  0.4365256420347102 0.1553012882969722 0  0.4409431984566073 0.1530111167095112 0  0.4453508713408087 0.1507015939605949 0  0.4497450722885442 0.1483706198625669 0  0.4541211074356429 0.1460226985013653 0  0.4584887982016793 0.1436582045045328 0  0.4628440221767888 0.1412756122164422 0  0.4671838664690693 0.1388792733874036 0  0.4715156525516255 0.1364699293065629 0  0.4758368986468111 0.1340460481368024 0  0.4801461276215296 0.1316122782167033 0  0.4844485979858444 0.129168449644666 0  0.4887425730337063 0.126713603516842 0  0.4930269523768476 0.1242513220292599 0  0.4973059375852296 0.1217817041311901 0  0.5015781485367274 0.1193040700433647 0  0.5058430475811331 0.1168213361901186 0  0.5101040294898036 0.114333187061916 0  0.5143598998132555 0.1118398014866375 0  0.5186108734122353 0.1093428455744791 0  0.5228578588881163 0.1068434258866753 0  0.5271007222449813 0.1043408438963292 0  0.531340816609419 0.101835387291217 0  0.5355800684098974 0.09932969911724501 0  0.5398158034333915 0.09682169748904308 0  0.5440506643825354 0.0943126303514002 0  0.5482837215959748 0.09180336162994585 0  0.5525153989286283 0.08929338001727032 0  0.5567466537995875 0.08678356952222775 0  0.5609771390654673 0.08427374317817878 0  0.5652073175007456 0.08176395895482869 0  0.5694375217695669 0.07925456899290589 0  0.5592870594504491 0.06214113628279447 0  0.5550571498352792 0.06465029911398433 0  0.5508275242404906 0.06715956217551425 0  0.5465982466871064 0.06966855639739668 0  0.5423691541026046 0.07217696327583065 0  0.5381404290430258 0.07468492888213346 0  0.5339117398576031 0.07719135543029096 0  0.5296834883495363 0.0796960037285103 0  0.5254547909632722 0.08219942236964452 0  0.5212257263479528 0.08469947407452012 0  0.5169966236448704 0.08719749954627955 0  0.512765693290212 0.08969159881865228 0  0.5085337954997913 0.0921799992075957 0  0.5043025973780425 0.09466656452622009 0  0.5000676368567984 0.09714631041822168 0  0.4958308021239199 0.09961703105841421 0  0.4915944512336575 0.1020850030903106 0  0.4873517256577408 0.1045432174455967 0  0.4831062930708135 0.1069891771749362 0  0.4788612912053857 0.109431462780878 0  0.4746071893632657 0.1118605103161252 0  0.470349295849266 0.1142734617082583 0  0.4660917515633539 0.1166817328275307 0  0.4618220829976183 0.119072919518288 0  0.4575474473154406 0.1214433582325662 0  0.4532717719384863 0.1238060743083474 0  0.4489848208393332 0.1261497317214252 0  0.4446898863429306 0.1284670105704103 0  0.4403935811178137 0.1307792618412333 0  0.4360778741610973 0.1330662774316105 0  0.4317563826854921 0.1353184318276574 0  0.4274345361543852 0.1375623956744434 0  0.4230941761321002 0.139773265842392 0  0.4187440920307269 0.1419676976613743 0  0.4143829889440498 0.1441325402025149 0  0.4100042678926001 0.1462621029197171 0  0.4056258953021278 0.1483692045258093 0  0.4012277218304369 0.1504411965424007 0  0.3968233348531471 0.1524803795309397 0  0.3924078734911858 0.1544819284644757 0  0.3879753008514779 0.1564452393208801 0  0.3835236119287657 0.1583818626423048 0  0.3790547381353285 0.160274590837512 0  0.3745939856492198 0.1621292013758948 0  0.3700992702132586 0.1639391234081038 0  0.3656056325772372 0.1656935818038155 0  0.361084730874552 0.1674159787890743 0  0.3565521239157276 0.1690773597874026 0  0.3519992304334515 0.1707051871721853 0  0.3474274752670251 0.1722749492928858 0  0.3428693447604596 0.1737980236705512 0  0.3382723846003272 0.1752649073204721 0  0.3336833579657932 0.1766605271034837 0  0.3290546002351873 0.178011129126135 0  0.3244158367100617 0.1792733767088784 0  0.3197804184356353 0.1805157120921952 0  0.3151138427537755 0.1816654545514805 0  0.3104679945772844 0.1827488097441801 0  0.3057804277451019 0.1837731857544293 0  0.3010868819649067 0.1847040441733649 0  0.2963774206386277 0.1855848325338207 0  0.2916536451563064 0.1863764316586939 0  0.2869512306867865 0.1871057082527632 0  0.2822068975664921 0.1877551031181223 0  0.2774887137284414 0.1883210131773292 0  0.2727382068958569 0.1887910380116766 0  0.2680101186212824 0.189177495619879 0  0.2632598676855054 0.1895031783747948 0  0.2585044368718272 0.1897299084018886 0  0.2537488681370823 0.1898443955300763 0  0.5660548813115676 0.06391032195412902 0  0.5711299930171628 0.07246704213353912 0  0.2589883179139092 0.2004058487810434 0  0.5199327401401956 0.09702326324046132 0  0.5414031992591755 0.08428437027569834 0  0.2774561152202534 0.1992971301365402 0  0.4947307626325556 0.1116727387707938 0  0.5074786259781456 0.1042361980105623 0  0.2941601875764795 0.1955025505882992 0  0.5536254400681612 0.07653939703806587 0  0.3098793847615844 0.1931921316684641 0  0.335830584622795 0.1873995176566193 0  0.4819419823622159 0.1190432808577527 0  0.3529849230739889 0.1810124572376082 0  0.4690982618586655 0.1263239966710171 0  0.3674932957484196 0.1757628675277434 0  0.3852064861955806 0.1685748524243313 0  0.4556904358049155 0.1333496370901991 0  0.442907152350315 0.1407562800532862 0  0.3984590486041178 0.1628648833824608 0  0.4121483241175323 0.1563574629206017 0  0.4292440339089436 0.1478621964939662 0  0.3194604047495528 0.191013214351909 0  0.5329971667266761 0.0892902681593704 0  0.4197135713503324 0.1524970694088827 0  0.3449602398072383 0.1838593379784754 0  0.3774160206116847 0.1719852996269275 0  0.2859236018242596 0.1974753688451373 0  0.5601058180984189 0.07119289557447653 0  0.2680723067030055 0.2010140552383809 0  0.4504810453189363 0.1392467164352121 0  0.4763591596690592 0.1249103675416064 0  0.4891898212179866 0.1175752257823238 0  0.3910964088092516 0.1635803476516967 0  0.4634619069786694 0.1321442575379739 0  0.501968496273583 0.1101641464507917 0  0.4373991803920402 0.1461870471962349 0  0.514708860035796 0.1026989690333564 0  0.4045180594599326 0.157485471553742 0  0.3592005239557679 0.1764259626381338 0  0.3025676228956674 0.1924099182796518 0  0.5463015372904281 0.07881011608591171 0  0.5247462821187001 0.09086219171941039 0  0.3278758372970855 0.1917701720860634 0  0.5263898986657348 0.09764711529315498 0  0.3280853737801775 0.1847447380806972 0  0.5135011681348229 0.09633718501940854 0  0.5007846621998691 0.1037964169853513 0  0.4880396715166238 0.1111995234641653 0  0.5512826835853746 0.08294047902761699 0  0.3015458200856664 0.1988294508699246 0  0.4624155896500048 0.1257457131031981 0  0.4752544975254866 0.1185245264643098 0  0.3915306754142922 0.1700571935271495 0  0.3592029713162688 0.1829209537162447 0  0.4456753126173936 0.1348992524068031 0  0.4365187090224064 0.1397577546494175 0  0.4051059697555706 0.1639487287554242 0  0.2557035594961866 0.1960238893834417 0  0.2550712562265852 0.2033955159809039 0  0.4274685101086602 0.1529903220175663 0  0.3697439922908041 0.1708218834981594 0  0.3379146171428223 0.181766777775272 0  0.280735436711785 0.1941219766757155 0  0.2904928789813759 0.1928159020354515 0  0.4184585082778889 0.1576629223940207 0  0.3469106110457426 0.1788984149677054 0  0.3789946423938537 0.1669011337244799 0  0.3150739526600089 0.1880945579262334 0  0.538126907300193 0.09063416011056881 0  0.5344676203367311 0.08389128427093449 0  0.31642669494745 0.1956906299187354 0  0.2707053910855978 0.1950580097667213 0  0.5601239239725359 0.07867553953564409 0  0.4236317019284854 0.1456444722655107 0  0.4146348528831002 0.1505724148422848 0  0.3400973678336686 0.1902289090722405 0  0.2813196275954321 0.2028308379053667 0  0.29192598792039 0.2013834633959539 0  0.3728796577990806 0.1784966154999756 0  0.3495167434284158 0.1876198374139911 0  0.3822288985244767 0.1754082774473281 0  0.2645766906500569 0.1957348441881354 0  0.5657876044119 0.07452745350669487 0  0.5082674409470921 0.09885866188532315 0  0.4955420123401781 0.1062971311195651 0  0.3073938352801328 0.1981576239207647 0  0.4827844939350084 0.1136708376371225 0  0.5465491375010076 0.08629421872239482 0  0.4699823765962077 0.1209563430056388 0  0.4571581441986412 0.
[...]
<PointData  Vectors="f_20-1"> 
<DataArray  type="Float64"  Name="f_20-1"  NumberOfComponents="3" format="ascii">-3.6482783768166598e-02 -1.3036800237733009e-01 0.0000000000000000e+00  -2.6332344650254115e-02 -1.3325472079986050e-01 0.0000000000000000e+00  0.0000000000000000e+00 0.0000000000000000e+00 0.0000000000000000e+00  0.0000000000000000e+00 0.0000000000000000e+00 0.0000000000000000e+00  -3.1407537435841300e-02 -1.3181130052759626e-01 0.0000000000000000e+00  0.0000000000000000e+00 0.0000000000000000e+00 0.0000000000000000e+00  0.0000000000000000e+00 0.0000000000000000e+00 0.0000000000000000e+00  0.0000000000000000e+00 0.0000000000000000e+00 0.0000000000000000e+00  0.0000000000000000e+00 0.0000000000000000e+00 0.0000000000000000e+00  1.6582145771128754e-04 -1.4455678929417402e-04 0.0000000000000000e+00  3.4895076326453686e-04 -3.0614984541856889e-04 0.0000000000000000e+00  5.2939288348348955e-04 -5.1390765157232287e-04 0.0000000000000000e+00  6.9543697203944006e-04 -8.6182376371893342e-04 0.0000000000000000e+00  8.4808771330596049e-04 -1.2870026536305581e-03 0.0000000000000000e+00  1.0001639721713225e-03 -1.8208173065893968e-03 0.0000000000000000e+00  1.1291671420959278e-03 -2.4119073740010324e-03 0.0000000000000000e+00  1.2319871433531806e-03 -3.1017896755841500e-03 0.0000000000000000e+00  1.3267235348292815e-03 -3.8711279598110130e-03 0.0000000000000000e+00  1.3999450717116263e-03 -4.7190717104931825e-03 0.0000000000000000e+00  1.4651773954893919e-03 -5.6742329749861261e-03 0.0000000000000000e+00  1.5263004712586718e-03 -6.6476617716823110e-03 0.0000000000000000e+00  1.5422395119834569e-03 -7.7375997063673409e-03 0.0000000000000000e+00  1.5695522202833570e-03 -8.8957231568760724e-03 0.0000000000000000e+00  1.5512754145895337e-03 -1.0108771386108179e-02 0.0000000000000000e+00  1.5186712282325928e-03 -1.1409640694543616e-02 0.0000000000000000e+00  1.4649539996850508e-03 -1.2759603411325886e-02 0.0000000000000000e+00  1.3827094768243103e-03 -1.4192998513493017e-02 0.0000000000000000e+00  1.2775288747337852e-03 -1.5660195535843555e-02 0.0000000000000000e+00  1.1497605542085698e-03 -1.7199187600294381e-02 0.0000000000000000e+00  9.9784120818386985e-04 -1.8786949841987213e-02 0.0000000000000000e+00  8.2021713002769351e-04 -2.0422618092220651e-02 0.0000000000000000e+00  6.2420573557403285e-04 -2.2140604775300787e-02 0.0000000000000000e+00  4.2379840231079218e-04 -2.3871191051345435e-02 0.0000000000000000e+00  1.8472323218031615e-04 -2.5671365089958813e-02 0.0000000000000000e+00  -7.4728125718040396e-05 -2.7500322310023220e-02 0.0000000000000000e+00  -3.5698983943475027e-04 -2.9382849955422466e-02 0.0000000000000000e+00  -6.6101044103556458e-04 -3.1303153381780503e-02 0.0000000000000000e+00  -9.8913392469403174e-04 -3.3258564974085296e-02 0.0000000000000000e+00  -1.3367647568541818e-03 -3.5275768527022563e-02 0.0000000000000000e+00  -1.6877887176196130e-03 -3.7299140372447012e-02 0.0000000000000000e+00  -2.0783318378919682e-03 -3.9370953446655525e-02 0.0000000000000000e+00  -2.4856717324418564e-03 -4.1485353751894348e-02 0.0000000000000000e+00  -2.8986891500171579e-03 -4.3609455659236865e-02 0.0000000000000000e+00  -3.3463487059660975e-03 -4.5776522424996510e-02 0.0000000000000000e+00  -3.7974186488949884e-03 -4.7969197783321794e-02 0.0000000000000000e+00  -4.2761635410210807e-03 -5.0185338600170659e-02 0.0000000000000000e+00  -4.7638856859037139e-03 -5.2434745682489702e-02 0.0000000000000000e+00  -5.2725753846226651e-03 -5.4698711703027779e-02 0.0000000000000000e+00  -5.7988246683893128e-03 -5.6988883290488776e-02 0.0000000000000000e+00  -6.3349574898358607e-03 -5.9298406039405060e-02 0.0000000000000000e+00  -6.8845622477421440e-03 -6.1629380137433125e-02 0.0000000000000000e+00  -7.4523328062730777e-03 -6.3977301498634689e-02 0.0000000000000000e+00  -8.0284477458873026e-03 -6.6341795495467190e-02 0.0000000000000000e+00  -8.6170294764108743e-03 -6.8724387783557772e-02 0.0000000000000000e+00  -9.2209908897974875e-03 -7.1120726612596427e-02 0.0000000000000000e+00  -9.8330105128878464e-03 -7.3530070693437116e-02 0.0000000000000000e+00  -1.0455570123364906e-02 -7.5953951863197602e-02 0.0000000000000000e+00  -1.1090146854276955e-02 -7.8387721783296629e-02 0.0000000000000000e+00  -1.1731482195616642e-02 -8.0831550355333931e-02 0.0000000000000000e+00  -1.2381312853383387e-02 -8.3286396483157943e-02 0.0000000000000000e+00  -1.3040739215901731e-02 -8.5748677970740109e-02 0.0000000000000000e+00  -1.3705559713157692e-02 -8.8218295868809846e-02 0.0000000000000000e+00  -1.4377154467276186e-02 -9.0695929956635307e-02 0.0000000000000000e+00  -1.5056061128508299e-02 -9.3178663809881393e-02 0.0000000000000000e+00  -1.5738884925496698e-02 -9.5666812938083920e-02 0.0000000000000000e+00  -1.6426820307683620e-02 -9.8160198513362440e-02 0.0000000000000000e+00  -1.7119652414363421e-02 -1.0065715442552091e-01 0.0000000000000000e+00  -1.7816472644120496e-02 -1.0315657411332470e-01 0.0000000000000000e+00  -1.8517414992871274e-02 -1.0565915610367071e-01 0.0000000000000000e+00  -1.9221126334071859e-02 -1.0816461270878298e-01 0.0000000000000000e+00  -1.9925680239248355e-02 -1.1067030088275503e-01 0.0000000000000000e+00  -2.0633750921396691e-02 -1.1317830251095694e-01 0.0000000000000000e+00  -2.1342695677912648e-02 -1.1568736964859980e-01 0.0000000000000000e+00  -2.2053444170136945e-02 -1.1819663837005411e-01 0.0000000000000000e+00  -2.2765572543117507e-02 -1.2070661998272962e-01 0.0000000000000000e+00  -2.3478123377795878e-02 -1.2321643047777224e-01 0.0000000000000000e+00  -2.4191443817566771e-02 -1.2572625682182123e-01 0.0000000000000000e+00  -2.4905071087935257e-02 -1.2823604104517133e-01 0.0000000000000000e+00  -2.5618672524773727e-02 -1.3074543100709404e-01 0.0000000000000000e+00  -3.5769134843934000e-02 -1.2785886371720551e-01 0.0000000000000000e+00  -3.5055238753479025e-02 -1.2534970088601563e-01 0.0000000000000000e+00  -3.4341058642628569e-02 -1.2284043782448577e-01 0.0000000000000000e+00  -3.3626530490366513e-02 -1.2033144360260331e-01 0.0000000000000000e+00  -3.2911817369246997e-02 -1.1782303672416937e-01 0.0000000000000000e+00  -3.2196736723205097e-02 -1.1531507111786657e-01 0.0000000000000000e+00  -3.1481620203014850e-02 -1.1280864456970910e-01 0.0000000000000000e+00  -3.0766066005452550e-02 -1.1030399627148969e-01 0.0000000000000000e+00  -3.0050957686085945e-02 -1.0780057763035544e-01 0.0000000000000000e+00  -2.9336216595750517e-02 -1.0530052592547985e-01 0.0000000000000000e+00  -2.8621513593234029e-02 -1.0280250045372043e-01 0.0000000000000000e+00  -2.7908638242292651e-02 -1.0030840118134771e-01 0.0000000000000000e+00  -2.7196730327104651e-02 -9.7820000792404257e-02 0.0000000000000000e+00  -2.6484122743220376e-02 -9.5333435473779898e-02 0.0000000000000000e+00  -2.5775277558864527e-02 -9.2853689581778323e-02 0.0000000000000000e+00  -2.5068306586104417e-02 -9.0382968941585817e-02 0.0000000000000000e+00  -2.4360851770764240e-02 -8.7914996909689389e-02 0.0000000000000000e+00  -2.3659771641081826e-02 -8.5456782554403310e-02 0.0000000000000000e+00  -2.2961398522404249e-02 -8.3010822825063807e-02 0.0000000000000000e+00  -2.2262594682194870e-02 -8.0568537219122008e-02 0.0000000000000000e+00  -2.1572890818706461e-02 -7.8139489683874797e-02 0.0000000000000000e+00  -2.0886978627087018e-02 -7.5726538291741627e-02 0.0000000000000000e+00  -2.0200717207380266e-02 -7.3318267172469295e-02 0.0000000000000000e+00  -1.9526580067486352e-02 -7.0927080481711979e-02 0.0000000000000000e+00  -1.8857410044056166e-02 -6.8556641767433840e-02 0.0000000000000000e+00  -1.8189279715382055e-02 -6.6193925691652569e-02 0.0000000000000000e+00  -1.7532425108922303e-02 -6.3850268278574707e-02 0.0000000000000000e+00  -1.6883553899704279e-02 -6.1532989429589770e-02 0.0000000000000000e+00  -1.6236053419196650e-02 -5.9220738158766668e-02 0.0000000000000000e+00  -1.5607954670283650e-02 -5.6933722568389376e-02 0.0000000000000000e+00  -1.4985640440279410e-02 -5.4681568172342668e-02 0.0000000000000000e+00  -1.4363681265761295e-02 -5.2437604325556560e-02 0.0000000000000000e+00  -1.3760235582429541e-02 -5.0226734157608026e-02 0.0000000000000000e+00  -1.3166513978186290e-02 -4.8032302338625661e-02 0.0000000000000000e+00  -1.2583811359236863e-02 -4.5867459797485133e-02 0.0000000000000000e+00  -1.2018726705048015e-02 -4.3737897080283000e-02 0.0000000000000000e+00  -1.1453293589877763e-02 -4.1630795474190692e-02 0.0000000000000000e+00  -1.0907661355922551e-02 -3.9558803457599288e-02 0.0000000000000000e+00  -1.0368242627552449e-02 -3.7519620469060364e-02 0.0000000000000000e+00  -9.8398982838621175e-03 -3.5518071535524262e-02 0.0000000000000000e+00  -9.3286652179121604e-03 -3.3554760679119805e-02 0.0000000000000000e+00  -8.8365484349890618e-03 -3.1618137357695225e-02 0.0000000000000000e+00  -8.3616165227797020e-03 -2.9725409162487983e-02 0.0000000000000000e+00  -7.8785633032624550e-03 -2.7870798624105211e-02 0.0000000000000000e+00  -7.4294730335671532e-03 -2.6060876591896237e-02 0.0000000000000000e+00  -6.9793049639400246e-03 -2.4306418196184464e-02 0.0000000000000000e+00  -6.5564009609566792e-03 -2.2584021210925696e-02 0.0000000000000000e+00  -6.1452022141336316e-03 -2.0922640212597356e-02 0.0000000000000000e+00  -5.7542899907592352e-03 -1.9294812827814672e-02 0.0000000000000000e+00  -5.3822394515639855e-03 -1.7725050707114186e-02 0.0000000000000000e+00  -4.9965642524713418e-03 -1.6201976329448808e-02 0.0000000000000000e+00  -4.6497187069647712e-03 -1.4735092679527852e-02 0.0000000000000000e+00  -4.2949396358603776e-03 -1.3339472896516231e-02 0.0000000000000000e+00  -3.9798916608279247e-03 -1.1988870873865092e-02 0.0000000000000000e+00  -3.6748494803133499e-03 -1.0726623291121671e-02 0.0000000000000000e+00  -3.3664620490817501e-03 -9.4842879078047056e-03 0.0000000000000000e+00  -3.0892320252837828e-03 -8.3345454485195050e-03 0.0000000000000000e+00  -2.7912744961168215e-03 -7.2511902558199028e-03 0.0000000000000000e+00  -2.5350356226562041e-03 -6.2268142455707571e-03 0.0000000000000000e+00  -2.2847756972130618e-03 -5.2959558266351785e-03 0.0000000000000000e+00  -2.0504313178536359e-03 -4.4151674661793107e-03 0.0000000000000000e+00  -1.8304010945365198e-03 -3.6235683413060877e-03 0.0000000000000000e+00  -1.5890098584009386e-03 -2.8942917472367324e-03 0.0000000000000000e+00  -1.3895372730374008e-03 -2.2448968818777450e-03 0.0000000000000000e+00  -1.1639154054302260e-03 -1.6789868226708259e-03 0.0000000000000000e+00  -9.7061653236744992e-04 -1.2089619883233372e-03 0.0000000000000000e+00  -7.5489910130365574e-04 -8.2250438012105285e-04 0.0000000000000000e+00  -5.6134433144241678e-04 -4.9682162520516525e-04 0.0000000000000000e+00  -3.7296943948233964e-04 -2.7009159811136000e-04 0.0000000000000000e+00  -1.8473246857552564e-04 -1.5560446992372536e-04 0.0000000000000000e+00  -3.3945118688432301e-02 -1.3108967804584923e-01 0.0000000000000000e+00  -2.8870006982837176e-02 -1.3253295786643379e-01 0.0000000000000000e+00  1.4891382259941232e-05 -1.4654056179696549e-04 0.0000000000000000e+00  -2.3213494245112119e-02 -1.0297673675950768e-01 0.0000000000000000e+00  -2.6836590217640472e-02 -1.1568608830520037e-01 0.0000000000000000e+00  4.7225084510397635e-06 -1.4970618056523320e-03 0.0000000000000000e+00  -1.9118820744341177e-02 -8.8229603878298118e-02 0.0000000000000000e+00  -2.1202374515592218e-02 -9.5666144638534623e-02 0.0000000000000000e+00  -3.5070762928524703e-04 -3.7886402522394149e-03 0.0000000000000000e+00  -2.9152643070331302e-02 -1.2300358306226900e-01 0.0000000000000000e+00  -5.3345489534113461e-04 -6.7783269124337435e-03 0.0000000000000000e+00  -1.1695909190600157e-03 -1.3429943586777481e-02 0.0000000000000000e+00  -1.7076183897830107e-02 -8.0859061791337519e-02 0.0000000000000000e+00  -2.2966944969155701e-03 -1.8987542762452653e-02 0.0000000000000000e+00  -1.5088487284527056e-02 -7.3578345978067797e-02 0.0000000000000000e+00  -3.2440756421355512e-03 -2.4251370167625515e-02 0.0000000000000000e+00  -4.6817713146689892e-03 -3.1425147575751468e-02 0.0000000000000000e+00  -1.3295319244357971e-02 -6.6192035335470287e-02 0.0000000000000000e+00  -1.1250579333881723e-02 -5.9243719946623620e-02 0.0000000000000000e+00  -5.8944427977152460e-03 -3.7232773968463612e-02 0.0000000000000000e+00  -7.4027676264245322e-03 -4.3642537079503989e-02 0.0000000000000000e+00  -9.4579439555075549e-03 -5.2123565810710953e-02 0.0000000000000000e+00  -7.8687027611746218e-04 -8.9956698627309140e-03 0.0000000000000000e+00  -2.5408187381408921e-02 -1.1070084762598729e-01 0.0000000000000000e+00  -8.3531433383810996e-03 -4.7351835411941316e-02 0.0000000000000000e+00  -1.8057548193091354e-03 -1.6291757200962015e-02 0.0000000000000000e+00  -3.9566139542061840e-03 -2.8165795552524544e-02 0.0000000000000000e+00  -1.4473586795019525e-04 -2.5661757254809557e-03 0.0000000000000000e+00  -3.1016563079700566e-02 -1.2705202036039787e-01 0.0000000000000000e+00  8.2990557142866459e-05 -6.6107040834817573e-04 0.0000000000000000e+00  -1.1092394923691564e-02 -6.3003646893588200e-02 0.0000000000000000e+00  -1.4877114807286294e-02 -7.7339995787202742e-02 0.0000000000000000e+00  -1.6877870375211788e-02 -8.4675137546487991e-02 0.0000000000000000e+00  -6.2075572594257151e-03 -3.4169289019499768e-02 0.0000000000000000e+00  -1.2942950380820302e-02 -7.0106105790831263e-02 0.0000000000000000e+00  -1.8930612436462168e-02 -9.2086216878026719e-02 0.0000000000000000e+00  -9.3428427337255305e-03 -5.6063316132565079e-02 0.0000000000000000e+00  -2.1021665791088714e-02 -9.9551394295463433e-02 0.0000000000000000e+00  -7.6173237255991039e-03 -4.0264165117455591e-02 0.0000000000000000e+00  -3.4968021735673500e-03 -2.1323674033058067e-02 0.0000000000000000e+00  -8.0403476622869575e-04 -5.3397183915350329e-03 0.0000000000000000e+00  -2.8979434181394648e-02 -1.1893952058523856e-01 0.0000000000000000e+00  -2.5713573800355868e-02 -1.0626628675435633e-01 0.0000000000000000e+00  -3.1693591759857770e-04 -1.1101349440177167e-02 0.0000000000000000e+00  -2.2028003384011233e-02 -1.0619320627632126e-01 0.0000000000000000e+00  -2.1493533038212842e-03 -1.1414940349851894e-02 0.0000000000000000e+00  -2.4419917088988337e-02 -9.9787996645002430e-02 0.0000000000000000e+00  -2.2305005907096269e-02 -9.2328764679054445e-02 0.0000000000000000e+00  -2.0218579473498411e-02 -8.4925658200244530e-02 0.0000000000000000e+00  -2.6188847283334964e-02 -1.2093433930797169e-01 0.0000000000000000e+00  3.6472182071166929e-04 -5.0453674656690817e-03 0.0000000000000000e+00  -1.6179827106406287e-02 -7.0379468561205930e-02 0.0000000000000000e+00  -1.8172336347780493e-02 -7.7600655200096486e-02 0.0000000000000000e+00  -3.5827312574708641e-03 -3.3817624808447078e-02 0.0000000000000000e+00  -1.3037954161430087e-03 -2.0953864619350407e-02 0.0000000000000000e+00  -1.3707568228320923e-02 -6.1225929257596234e-02 0.0000000000000000e+00  -1.2413873500273967e-02 -5.6367427014983179e-02 0.0000000000000000e+00  -4.8388540330514332e-03 -3.9926089580174885e-02 0.0000000000000000e+00  -8.2740484010360759e-05 -6.1947642287758347e-05 0.0000000000000000e+00  5.6520195645341217e-05 -4.7127018207560810e-05 0.0000000000000000e+00  -7.3346375378085683e-03 -5.0783435746589063e-02 0.0000000000000000e+00  -4.8922093176058277e-03 -2.5404358737695840e-02 0.0000000000000000e+00  -2.7112194436080157e-03 -1.4280014418717001e-02 0.0000000000000000e+00  -5.6473140719826790e-04 -1.9248155183346697e-03 0.0000000000000000e+00  -7.7575976261343236e-04 -3.2657308294766299e-03 0.0000000000000000e+00  -6.2120253041001517e-03 -4.6290285411933738e-02 0.0000000000000000e+00  -3.2515646871704258e-03 -1.7148377226482308e-02 0.0000000000000000e+00  -5.7741732784157354e-03 -2.9145658469756055e-02 0.0000000000000000e+00  -1.5584158783471913e-03 -8.0649006371365777e-03 0.0000000000000000e+00  -2.4028093805148108e-02 -1.1314748914933030e-01 0.0000000000000000e+00  -2.7973767365245886e-02 -1.1218490809020321e-01 0.0000000000000000e+00  1.8719136413713257e-04 -8.1773258237337436e-03 0.0000000000000000e+00  -3.8332233516438335e-04 -9.1163456586246857e-04 0.0000000000000000e+00  -2.7177513667824404e-02 -1.2604724856743821e-01 0.0000000000000000e+00  -1.1036254715785357e-02 -4.9820673689740629e-02 0.0000000000000000e+00  -9.6947975246984355e-03 -4.5303283251621349e-02 0.0000000000000000e+00  -1.5858324968373068e-04 -1.4565140956851798e-02 0.0000000000000000e+00  4.5113491933877775e-04 -1.9434038758989372e-03 0.0000000000000000e+00  5.1828460651779827e-04 -3.3974883111415892e-03 0.0000000000000000e+00  -1.8917348114126508e-03 -2.6038238544879841e-02 0.0000000000000000e+00  -4.0490546147094273e-04 -1.7555503904639315e-02 0.0000000000000000e+00  -2.2993903047530784e-03 -2.9767063871307953e-02 0.0000000000000000e+00  -2.3779589544820802e-04 -4.7413011050204828e-04 0.0000000000000000e+00  -2.8537159954389282e-02 -1.2951408885222332e-01 0.0000000000000000e+00  -2.3829820098522369e-02 -9.6785848019764101e-02 0.0000000000000000e+00  -2.1723831588594325e-02 -8.9347378785520390e-02 0.0000000000000000e+00  4.0150971986691617e-04 -6.1891794664904708e-03 0.0000000000000000e+00  -1.9649932876918050e-02 -8.1973672267963843e-02 0.0000000000000000e+00  -2.5111166072427551e-02 -1.1805258466488130e-01 0.0000000000000000e+00  -1.7620633098866433e-02 -7.4688166899444325e-02 0.0000000000000000e+00  -1.5657053330985198e-02 -6.7538129303273325e-02 0.0000000000000000e+00  -1.4599015518333112e-03 -2.2992952236298603e-02 0.0000000000000000e+00  -1.4665395438002769e-02 -6.3894175574223680e-02 0.0000000000000000e+00  -3.8702965103236237e-03 -3.6219433452513751e-02 0.0000000000000000e+00  -1.1948529001852694e-02 -5.3644368502221061e-02 0.0000000000000000e+00  -5.1752265001310345e-03 -4.2452227240285252e-02 0.0000000000000000e+00  -3.1645398836170312e-02 -1.2434029092797586e-01 0.0000000000000000e+00  -2.2550016094329557e-02 -1.0918688694476926e-01 0.0000000000000000e+00  -2.0372468831548430e-03 -9.9213306009206925e-03 0.0000000000000000e+00  3.6910914548438778e-04 -1.0116423561215347e-03 0.0000000000000000e+00  1.9885978042986249e-04 -3.8174396353969625e-04 0.0000000000000000e+00  -9.3960980855954911e-03 -6.1040594729863236e-02 0.0000000000000000e+00  -9.0454145484698007e-03 -4.2015055566866931e-02 0.0000000000000000e+00  -1.1188706237064449e-02 -6.8108533813211428e-02 0.0000000000000000e+00  -1.7112080388948629e-02 -9.0005735660490485e-02 0.0000000000000000e+00  -1.3121719206506989e-02 -7.5295403612438305e-02 0.0000000000000000e+00  -1.5086628058257836e-02 -8.2609742751817247e-02 0.0000000000000000e+00  -7.3219724301264687e-03 -3.6037124179706427e-02 0.0000000000000000e+00  -7.7998653541563661e-03 -5.4174975307216731e-02 0.0000000000000000e+00  -4.5770520309520984e-03 -2.2800814769563440e-02 0.0000000000000000e+00  -6.7279307192344897e-03 -3.2087516346468656e-02 0.0000000000000000e+00  -2.0489796098559426e-02 -1.0230738899996242e-01 0.0000000000000000e+00  -3.9788263104248165e-03 -1.9603836352744833e-02 0.0000000000000000e+00  -1.9508641038772499e-02 -9.7268788359560002e-02 0.0000000000000000e+00  -1.3773352925499514e-03 -6.2063396115945415e-03 0.0000000000000000e+00  -1.1098732351316608e-03 -4.4455793720105290e-03 0.0000000000000000e+00  -3.0732963065604000e-02 -1.2085010221526125e-01 0.0000000000000000e+00  -2.9508056930580465e-02 -1.1616860516033109e-01 0.0000000000000000e+00  -1.6935127773674098e-02 -8.7436622580819523e-02 0.0000000000000000e+00  -1.4921852178252624e-02 -8.0067793089813294e-02 0.0000000000000000e+00  -1.0957649920790645e-02 -6.5578968270727553e-02 0.0000000000000000e+00  -1.8857944918578565e-02 -9.4830472028635884e-02 0.0000000000000000e+00  -1.2972387110080672e-02 -7.2789827157951889e-02 0.0000000000000000e+00  -9.1527163779173935e-03 -5.8586032131856501e-02 0.0000000000000000e+00  -7.7658030690961697e-03 -3.8019601815886407e-02 0.0000000000000000e+00  2.5658467918400404e-04 -9.9598867056448666e-03 0.0000000000000000e+00  -2.7317243195274531e-02 -1.0838826224002586e-01 0.0000000000000000e+00  -2.5891250645541534e-02 -1.0365693769439889e-01 0.000000000000000