<?xml version="1.0"?>
<VTKFile type="UnstructuredGrid"  version="0.1"  >
<UnstructuredGrid>
<Piece  NumberOfPoints="439" NumberOfCells="725">
<Points>
<DataArray  type="Float64"  NumberOfComponents="3"  format="ascii">0.6000056420419284 0.1881585550822559 0  0.6000005562196872 0.2081585583768179 0  0.2489897949 0.21 0  0.2489897949 0.19 0  0.6000030978265125 0.1981585510436803 0  0.2496355385699469 0.2060260530378829 0  0.249959460510575 0.2020130349814059 0  0.2499594605105767 0.1979869650186357 0  0.24963553856995 0.1939739469621422 0  0.2539473049651155 0.2099871195464672 0  0.2589049875661035 0.2099734213043629 0  0.263862000214346 0.2099564322796027 0  0.2688176092182199 0.2099302606912176 0  0.2737718003606996 0.2098997592447477 0  0.2787257065595189 0.2098629870893892 0  0.283678005788514 0.2098236111149203 0  0.2886287934974206 0.2097794186102335 0  0.2935789925059614 0.2097319393679209 0  0.2985281436389227 0.2096815826260565 0  0.3034769054849374 0.2096279721324081 0  0.3084250882322727 0.2095740482574561 0  0.3133717927275987 0.2095171517546398 0  0.3183183813539099 0.209459318113295 0  0.3232637795296134 0.2094006524555553 0  0.3282086039400886 0.2093414582665989 0  0.333152746267401 0.2092820625050583 0  0.3380962629793042 0.2092227138745115 0  0.3430393529406502 0.2091638586124719 0  0.3479818812801673 0.2091056639131622 0  0.3529240431658431 0.209048209718291 0  0.3578659246440058 0.2089918770048958 0  0.3628070371977145 0.2089375366853125 0  0.3677478055453871 0.2088836600410061 0  0.372688421359112 0.2088320453184422 0  0.3776290189029691 0.2087817838810463 0  0.3825692751693021 0.2087336499231625 0  0.3875094548050909 0.2086872693329804 0  0.3924497214331136 0.2086428275700803 0  0.397389327723868 0.2086014969882581 0  0.4023287742714776 0.208560552724472 0  0.4072687617102215 0.208522788987687 0  0.4122083509540331 0.2084876859120524 0  0.4171478611134623 0.2084532543793917 0  0.4220878790825744 0.2084220765210176 0  0.4270272294255434 0.2083924471686686 0  0.4319673280684211 0.2083650487088005 0  0.4369067817000574 0.2083398892258463 0  0.441846952719501 0.2083163288012208 0  0.4467872480221463 0.208295003592964 0  0.451727413019518 0.208275255957933 0  0.4566675835646544 0.2082573668858175 0  0.4616082710580504 0.2082412624540768 0  0.4665488280613547 0.2082265860723457 0  0.4714894624664641 0.2082135985835365 0  0.4764305670780997 0.2082021545037204 0  0.4813716621663882 0.208191931142139 0  0.4863128517277992 0.2081831361802121 0  0.4912544469563128 0.208175532710842 0  0.4961960677169569 0.2081689210797894 0  0.5011377928568781 0.2081634427098733 0  0.5060798634319016 0.2081589069202892 0  0.5110219830231134 0.2081551282035609 0  0.5159642188914352 0.2081522155608362 0  0.5209067437040622 0.208149993449966 0  0.5258492991169494 0.2081483339397797 0  0.5307919785031936 0.2081472788273802 0  0.5357348431428693 0.2081467021297463 0  0.540677879533664 0.2081464842732479 0  0.5456210654101905 0.2081466830993528 0  0.5505643169306675 0.2081472164572323 0  0.555507617903696 0.2081478053032649 0  0.5604510647924253 0.2081487238521895 0  0.5653945254111886 0.2081497597029037 0  0.5703381071060944 0.2081508946876681 0  0.5752817567004321 0.2081521454459389 0  0.5802254453831824 0.2081534038423505 0  0.5851691910519602 0.2081546994898986 0  0.5901129634979193 0.2081560069540324 0  0.5950567536290433 0.2081572843682252 0  0.595061833207969 0.1881572875234159 0  0.5901180105651537 0.1881560064639594 0  0.5851741730642233 0.188154705115974 0  0.5802303001860259 0.1881534065739472 0  0.5752863883605301 0.1881521417904332 0  0.5703424308793419 0.1881508925244559 0  0.565398401123182 0.1881497527908126 0  0.560454257905904 0.1881487211982107 0  0.555510091053658 0.1881478002476125 0  0.5505657961300995 0.1881471392435034 0  0.5456214115932161 0.1881466273195027 0  0.540676979203912 0.1881464838735271 0  0.535732356874006 0.1881467962623809 0  0.5307876022370952 0.1881472101930159 0  0.5258428096521841 0.1881482887212595 0  0.5208977477249433 0.188150101420695 0  0.5159525311740227 0.1881520924791844 0  0.5110073385523896 0.1881550722060397 0  0.5060618056593459 0.1881590491503138 0  0.5011160880308259 0.1881632742644951 0  0.4961704484095496 0.1881688442339242 0  0.4912244025604745 0.1881757180557545 0  0.4862781468479994 0.1881829152683265 0  0.4813320395051489 0.188191832226242 0  0.4763854551116936 0.1882023973523599 0  0.4714386529158553 0.1882135420761797 0  0.4664918908420015 0.1882264816295662 0  0.4615446950673239 0.1882415102623757 0  0.4565974391001516 0.1882569682203394 0  0.4516505685086903 0.1882748432342522 0  0.4467029055421103 0.1882952063839235 0  0.4417550400374691 0.1883161155542335 0  0.4368072969955054 0.1883398142898957 0  0.4318596943320057 0.1883648647863259 0  0.4269119275260918 0.1883921140953529 0  0.4219642473096796 0.1884219463163606 0  0.4170160419114455 0.1884531456263879 0  0.412068067383055 0.1884868846041514 0  0.407119765006344 0.1885225715356931 0  0.4021713421012165 0.1885605348168566 0  0.3972231312581304 0.1886007794576973 0  0.3922754365413794 0.1886427873325516 0  0.3873278523466619 0.1886871320840588 0  0.3823795540080582 0.1887330807782584 0  0.3774321683323633 0.1887812578192435 0  0.3724843616870498 0.1888315376852019 0  0.3675373262847524 0.1888832511657886 0  0.3625903156142895 0.188936838421749 0  0.3576439150582352 0.1889916307451319 0  0.352697871132187 0.1890479198535125 0  0.3477517665794548 0.1891051938931859 0  0.3428065093126685 0.189163361172533 0  0.3378616098185591 0.1892224337267474 0  0.3329173618771499 0.1892817660560032 0  0.3279737896736187 0.1893411313494571 0  0.3230306831898066 0.1894003804002529 0  0.3180882910917877 0.1894591246320085 0  0.3131471007311779 0.1895170181647289 0  0.3082060973317238 0.1895737676118297 0  0.3032661698411429 0.1896283423091403 0  0.2983268499871764 0.1896814799977823 0  0.2933883545187228 0.1897316934262468 0  0.2884516957615686 0.1897797270884327 0  0.283514720124822 0.1898238238953364 0  0.2785802693646516 0.1898644514552998 0  0.2736456674695565 0.1898993578718755 0  0.2687137005057324 0.1899295829185492 0  0.2637814383394787 0.1899556740815347 0  0.2588499459250864 0.1899749635688499 0  0.2539195277011112 0.18998633244772 0  0.6000043645119978 0.193158553030583 0  0.6000018333929876 0.2031585539516536 0  0.2589750573201399 0.2005366449520389 0  0.5431493796665814 0.1981461015565315 0  0.5682428967430305 0.1981207086270859 0  0.2774564360942212 0.2006738404066943 0  0.5138526640522233 0.1980546702099009 0  0.5286840930428306 0.1980492722959295 0  0.2945042131559695 0.1990171272650387 0  0.5827812883953435 0.1976970084885483 0  0.3104127411389625 0.1995226581411788 0  0.337010576121636 0.2000634024926505 0  0.4990212045629048 0.1980666224383901 0  0.3552828478161192 0.1990183951477272 0  0.48418972170866 0.1980873393371758 0  0.3707392375668777 0.1988626471644045 0  0.3898903556035812 0.1986623148408137 0  0.4689876403884491 0.1977593890263006 0  0.4541607457477131 0.1982638166400112 0  0.4043567024606544 0.1986389591310561 0  0.4195538340828586 0.1984343422366086 0  0.4387048520035007 0.1983136243454998 0  0.3202477108515718 0.1994451628437329 0  0.5584084545422077 0.1981391538963636 0  0.4280685392191219 0.1982322513060374 0  0.3467687703958726 0.1992683467308483 0  0.381376099209589 0.1988925129484563 0  0.2860682896182152 0.1998475884059363 0  0.5911259192510258 0.1964011644119019 0  0.2679970146799223 0.2016174731972498 0  0.4615836743075022 0.2004894351194193 0  0.4912428637925306 0.2004244322839637 0  0.5060729274674609 0.2004081290277122 0  0.3972876612572327 0.1963478234647056 0  0.4764131088811259 0.200450698022193 0  0.5209033106295182 0.2003995221195887 0  0.4467546349617672 0.2005429169514995 0  0.5357339809875459 0.2003965211242743 0  0.4121221749004119 0.1962339811314122 0  0.3626745846740331 0.196684821208214 0  0.3033484855696293 0.1973808654953189 0  0.5752845667821616 0.1959016764835494 0  0.5504631425915784 0.1952752635020582 0  0.3282266485432189 0.2022120099202183 0  0.5484208658826712 0.2019869368801565 0  0.33019049772137 0.1954753847064906 0  0.5379237670886359 0.1942712827646708 0  0.5230911268121291 0.1942736192768664 0  0.5082580066800959 0.1942812860621172 0  0.5774737505300259 0.2020274402364002 0  0.3012211016178966 0.2035297412127345 0  0.4785900358849899 0.1943210235020253 0  0.4934243253372072 0.1942963240617112 0  0.3951482677182012 0.2024917661151862 0  0.3605502331729581 0.2028344790718141 0  0.4593732316407771 0.1943713884003125 0  0.4489195439726998 0.1944089241062382 0  0.4099750731274094 0.2023749939666288 0  0.2557805148741438 0.1960781754984927 0  0.2550192930042953 0.2034365445455562 0  0.4348256370199039 0.2021213414698707 0  0.3746002683032571 0.1950347437153475 0  0.3405807487558581 0.1952371632900033 0  0.281269951434276 0.1958945067461971 0  0.291233322216946 0.1958390616207598 0  0.424696999853737 0.2023569433837431 0  0.3501182769674701 0.1951242518478267 0  0.3847340505050667 0.1947560713669165 0  0.3165891669745277 0.1956384730325569 0  0.5621574703886867 0.2019305123936404 0  0.562445157470614 0.19422511880841 0  0.3162834098313658 0.2033516913798794 0  0.2710651528215712 0.1958917406174053 0  0.5873033670886612 0.2028780358620795 0  0.4346474712137857 0.1938136149006022 0  0.4243076304873467 0.1942810534912815 0  0.3403125327056732 0.2039890427964394 0  0.2809043590542098 0.2046250033071003 0  0.2914514786220803 0.2045364821384268 0  0.3748186132618935 0.2033423419235953 0  0.3499816382800643 0.2042560992161998 0  0.3845784967105551 0.2038876691610801 0  0.2647989611609874 0.1961658706757163 0  0.5943268425539886 0.202198631330148 0  0.5320994966138513 0.1937910884740528 0  0.5172665580357618 0.1937953252539385 0  0.3070390111798301 0.2039373892155101 0  0.5024330319752807 0.1938056567885931 0  0.57166248694435 0.2024979395153941 0  0.4875988562473885 0.1938242335300807 0  0.472807563047984 0.1938490026571622 0  0.3663780311590059 0.2032634639860696 0
[...]
<PointData  Vectors="f_20-1"> 
<DataArray  type="Float64"  Name="f_20-1"  NumberOfComponents="3" format="ascii">5.6420419284477408e-06 -1.8414449177440910e-03 0.0000000000000000e+00  5.5621968724773990e-07 -1.8414416231820646e-03 0.0000000000000000e+00  0.0000000000000000e+00 0.0000000000000000e+00 0.0000000000000000e+00  0.0000000000000000e+00 0.0000000000000000e+00 0.0000000000000000e+00  3.0978265125780952e-06 -1.8414489563197195e-03 0.0000000000000000e+00  0.0000000000000000e+00 0.0000000000000000e+00 0.0000000000000000e+00  0.0000000000000000e+00 0.0000000000000000e+00 0.0000000000000000e+00  0.0000000000000000e+00 0.0000000000000000e+00 0.0000000000000000e+00  0.0000000000000000e+00 0.0000000000000000e+00 0.0000000000000000e+00  1.3704359486155895e-05 -1.2880453532815331e-05 0.0000000000000000e+00  2.7581254849317128e-05 -2.6578695637047520e-05 0.0000000000000000e+00  4.0788197453904372e-05 -4.3567720397257681e-05 0.0000000000000000e+00  5.2591495689897981e-05 -6.9739308782399854e-05 0.0000000000000000e+00  6.2976932542739333e-05 -1.0024075525224719e-04 0.0000000000000000e+00  7.3077425743579719e-05 -1.3701291061075403e-04 0.0000000000000000e+00  8.1570949120260270e-05 -1.7638888507970260e-04 0.0000000000000000e+00  8.8552952403999594e-05 -2.2058138976651279e-04 0.0000000000000000e+00  9.4946255309199409e-05 -2.6806063207912415e-04 0.0000000000000000e+00  1.0029168265189001e-04 -3.1841737394345111e-04 0.0000000000000000e+00  1.0524782303762527e-04 -3.7202786759184096e-04 0.0000000000000000e+00  1.0962486475459239e-04 -4.2595174254387772e-04 0.0000000000000000e+00  1.1252365446225614e-04 -4.8284824536017122e-04 0.0000000000000000e+00  1.1530657515496593e-04 -5.4068188670497084e-04 0.0000000000000000e+00  1.1689904524019597e-04 -5.9934754444468451e-04 0.0000000000000000e+00  1.1791775009691197e-04 -6.5854173340112532e-04 0.0000000000000000e+00  1.1825437178021280e-04 -7.1793749494171270e-04 0.0000000000000000e+00  1.1796537807583392e-04 -7.7728612548845554e-04 0.0000000000000000e+00  1.1724963379260483e-04 -8.3614138752809272e-04 0.0000000000000000e+00  1.1597226769133295e-04 -8.9433608683784174e-04 0.0000000000000000e+00  1.1432844774865264e-04 -9.5179028170898892e-04 0.0000000000000000e+00  1.1240422029303978e-04 -1.0081229951041631e-03 0.0000000000000000e+00  1.0971106838334813e-04 -1.0624633146874615e-03 0.0000000000000000e+00  1.0667371043750037e-04 -1.1163399589938692e-03 0.0000000000000000e+00  1.0348381853321637e-04 -1.1679546815577633e-03 0.0000000000000000e+00  1.0027565678140583e-04 -1.2182161189536718e-03 0.0000000000000000e+00  9.6726217490127845e-05 -1.2663500768374935e-03 0.0000000000000000e+00  9.3100147657157944e-05 -1.3127306670196262e-03 0.0000000000000000e+00  8.9561070050523520e-05 -1.3571724299197016e-03 0.0000000000000000e+00  8.5361655197387147e-05 -1.3985030117419587e-03 0.0000000000000000e+00  8.1002497179062739e-05 -1.4394472755279437e-03 0.0000000000000000e+00  7.7184230310773787e-05 -1.4772110123129629e-03 0.0000000000000000e+00  7.2967768502039032e-05 -1.5123140879476054e-03 0.0000000000000000e+00  6.8672222310508743e-05 -1.5467456206082442e-03 0.0000000000000000e+00  6.4884485810804885e-05 -1.5779234789823592e-03 0.0000000000000000e+00  6.0429123151524562e-05 -1.6075528313313455e-03 0.0000000000000000e+00  5.6722060395858985e-05 -1.6349512911995046e-03 0.0000000000000000e+00  5.2369986380119117e-05 -1.6601107741537253e-03 0.0000000000000000e+00  4.8735300168075901e-05 -1.6836711987792306e-03 0.0000000000000000e+00  4.5224897149526014e-05 -1.7049964070359753e-03 0.0000000000000000e+00  4.1584188873533580e-05 -1.7247440420670283e-03 0.0000000000000000e+00  3.7949028367944989e-05 -1.7426331141825280e-03 0.0000000000000000e+00  3.4830816134376352e-05 -1.7587375459231455e-03 0.0000000000000000e+00  3.1582113788214206e-05 -1.7734139276542663e-03 0.0000000000000000e+00  2.8410813264370341e-05 -1.7864014164635132e-03 0.0000000000000000e+00  2.5709719232945008e-05 -1.7978454962796447e-03 0.0000000000000000e+00  2.2999101874777705e-05 -1.8080688578610141e-03 0.0000000000000000e+00  2.0382957623167178e-05 -1.8168638197879235e-03 0.0000000000000000e+00  1.8172480506150448e-05 -1.8244672891579970e-03 0.0000000000000000e+00  1.5987535495795941e-05 -1.8310789202105418e-03 0.0000000000000000e+00  1.3906969788418074e-05 -1.8365572901267021e-03 0.0000000000000000e+00  1.2171839152203951e-05 -1.8410930797108269e-03 0.0000000000000000e+00  1.0485724726112679e-05 -1.8448717964390736e-03 0.0000000000000000e+00  8.9158874316215438e-06 -1.8477844391637779e-03 0.0000000000000000e+00  7.6349944207409813e-06 -1.8500065500339717e-03 0.0000000000000000e+00  6.3847016492628415e-06 -1.8516660602203262e-03 0.0000000000000000e+00  5.2583822545327758e-06 -1.8527211726198230e-03 0.0000000000000000e+00  4.3173162706548489e-06 -1.8532978702536416e-03 0.0000000000000000e+00  3.5480014273079189e-06 -1.8535157267521299e-03 0.0000000000000000e+00  2.9281723376672880e-06 -1.8533169006472083e-03 0.0000000000000000e+00  2.3739871767507635e-06 -1.8527835427676680e-03 0.0000000000000000e+00  1.8692545503512422e-06 -1.8521946967351378e-03 0.0000000000000000e+00  1.5104376369173667e-06 -1.8512761478104304e-03 0.0000000000000000e+00  1.1653507405570776e-06 -1.8502402970963221e-03 0.0000000000000000e+00  9.4133998279675590e-07 -1.8491053123319175e-03 0.0000000000000000e+00  7.8522868624610987e-07 -1.8478545540610654e-03 0.0000000000000000e+00  6.6820579897630074e-07 -1.8465961576494335e-03 0.0000000000000000e+00  6.0816892616377117e-07 -1.8453005101014381e-03 0.0000000000000000e+00  5.7490923836537014e-07 -1.8439930459675986e-03 0.0000000000000000e+00  5.5933470285870133e-07 -1.8427156317747800e-03 0.0000000000000000e+00  5.6389135857338625e-06 -1.8427124765841006e-03 0.0000000000000000e+00  5.6219763956347163e-06 -1.8439935360406241e-03 0.0000000000000000e+00  5.5901811038610065e-06 -1.8452948840260166e-03 0.0000000000000000e+00  5.5230085532524653e-06 -1.8465934260527902e-03 0.0000000000000000e+00  5.4168886787474274e-06 -1.8478582095668343e-03 0.0000000000000000e+00  5.2651131111019087e-06 -1.8491074755440902e-03 0.0000000000000000e+00  5.0410625639361041e-06 -1.8502472091874280e-03 0.0000000000000000e+00  4.7035509150432064e-06 -1.8512788017892936e-03 0.0000000000000000e+00  4.3424042999471079e-06 -1.8521997523875075e-03 0.0000000000000000e+00  3.8531863960241599e-06 -1.8528607564965633e-03 0.0000000000000000e+00  3.2743551118353213e-06 -1.8533726804973100e-03 0.0000000000000000e+00  2.6476714070574371e-06 -1.8535161264729039e-03 0.0000000000000000e+00  1.8310471099032681e-06 -1.8532037376190660e-03 0.0000000000000000e+00  8.8211583210051648e-07 -1.8527898069841198e-03 0.0000000000000000e+00  -1.0476347873591850e-07 -1.8517112787404797e-03 0.0000000000000000e+00  -1.3609850810343662e-06 -1.8498985793050210e-03 0.0000000000000000e+00  -2.7718303991138367e-06 -1.8479075208155645e-03 0.0000000000000000e+00  -4.1587464330232399e-06 -1.8449277939603082e-03 0.0000000000000000e+00  -5.8859338718783219e-06 -1.8409508496861516e-03 0.0000000000000000e+00  -7.7978567547382603e-06 -1.8367257355048940e-03 0.0000000000000000e+00  -9.6317724224247667e-06 -1.8311557660758151e-03 0.0000000000000000e+00  -1.1871915878609500e-05 -1.8242819442454807e-03 0.0000000000000000e+00  -1.4321922734940257e-05 -1.8170847316735675e-03 0.0000000000000000e+00  -1.6623559955709249e-05 -1.8081677737580445e-03 0.0000000000000000e+00  -1.9402247802982573e-05 -1.7976026476401387e-03 0.0000000000000000e+00  -2.2398738013027733e-05 -1.7864579238202625e-03 0.0000000000000000e+00  -2.5355106253984696e-05 -1.7735183704338446e-03 0.0000000000000000e+00  -2.8745175311018794e-05 -1.7584897376243065e-03 0.0000000000000000e+00  -3.2195436858741848e-05 -1.7430317796606279e-03 0.0000000000000000e+00  -3.5260322690553123e-05 -1.7251567657477862e-03 0.0000000000000000e+00  -3.9117583661301837e-05 -1.7047936160765268e-03 0.0000000000000000e+00  -4.3177382677432125e-05 -1.6838844457664828e-03 0.0000000000000000e+00  -4.7114719024334718e-05 -1.6601857101042441e-03 0.0000000000000000e+00  -5.0911676907397519e-05 -1.6351352136741550e-03 0.0000000000000000e+00  -5.4872777194859304e-05 -1.6078859046471546e-03 0.0000000000000000e+00  -5.8747287968535931e-05 -1.5780536836394359e-03 0.0000000000000000e+00  -6.3146980560120454e-05 -1.5468543736120990e-03 0.0000000000000000e+00  -6.7315803304402098e-05 -1.5131153958486379e-03 0.0000000000000000e+00  -7.1812474355487679e-05 -1.4774284643068714e-03 0.0000000000000000e+00  -7.6429673831309675e-05 -1.4394651831433794e-03 0.0000000000000000e+00  -8.0834811259700021e-05 -1.3992205423027347e-03 0.0000000000000000e+00  -8.4723822375401618e-05 -1.3572126674483871e-03 0.0000000000000000e+00  -8.8502311446245747e-05 -1.3128679159412125e-03 0.0000000000000000e+00  -9.2994944424230712e-05 -1.2669192217416312e-03 0.0000000000000000e+00  -9.6574914462511385e-05 -1.2187421807565587e-03 0.0000000000000000e+00  -1.0057585412744938e-04 -1.1684623147980744e-03 0.0000000000000000e+00  -1.0380555075611153e-04 -1.1167488342114062e-03 0.0000000000000000e+00  -1.0701051557187665e-04 -1.0631615782510152e-03 0.0000000000000000e+00  -1.0960536597556739e-04 -1.0083692548680510e-03 0.0000000000000000e+00  -1.1184358640204845e-04 -9.5208014648748849e-04 0.0000000000000000e+00  -1.1414243347625006e-04 -8.9480610681415859e-04 0.0000000000000000e+00  -1.1559399462347239e-04 -8.3663882746693678e-04 0.0000000000000000e+00  -1.1668778309445106e-04 -7.7756627325263530e-04 0.0000000000000000e+00  -1.1713001886532681e-04 -7.1823394399679532e-04 0.0000000000000000e+00  -1.1689651675648294e-04 -6.5886865054288156e-04 0.0000000000000000e+00  -1.1619729491054007e-04 -5.9961959974706366e-04 0.0000000000000000e+00  -1.1478368727147884e-04 -5.4087536799146544e-04 0.0000000000000000e+00  -1.1216834222333047e-04 -4.8298183527107968e-04 0.0000000000000000e+00  -1.0936603603429127e-04 -4.2623238817026180e-04 0.0000000000000000e+00  -1.0548782097681802e-04 -3.7165769085972702e-04 0.0000000000000000e+00  -1.0100196930485863e-04 -3.1852000221773688e-04 0.0000000000000000e+00  -9.5691732120084205e-05 -2.6830657375319649e-04 0.0000000000000000e+00  -8.8544783618766282e-05 -2.2027291156726406e-04 0.0000000000000000e+00  -8.1714714707511486e-05 -1.7617610466364068e-04 0.0000000000000000e+00  -7.2359769219987528e-05 -1.3554854470015533e-04 0.0000000000000000e+00  -6.3155958667840425e-05 -1.0064212812454165e-04 0.0000000000000000e+00  -5.1317216853601953e-05 -7.0417081450807281e-05 0.0000000000000000e+00  -3.9773677468863906e-05 -4.4325918465257225e-05 0.0000000000000000e+00  -2.7460386222865458e-05 -2.5036431150067690e-05 0.0000000000000000e+00  -1.4072904546669709e-05 -1.3667552280012253e-05 0.0000000000000000e+00  4.3645119978127778e-06 -1.8414469693952785e-03 0.0000000000000000e+00  1.8333929877236791e-06 -1.8414460483192794e-03 0.0000000000000000e+00  1.6307884906125665e-06 -1.5744390801448677e-05 0.0000000000000000e+00  3.1452812737095298e-06 -1.8538984434375019e-03 0.0000000000000000e+00  3.1072662143321499e-06 -1.8497499538127613e-03 0.0000000000000000e+00  5.0433824187983711e-06 -1.2035153549831540e-04 0.0000000000000000e+00  3.0806753263001682e-06 -1.8476724391910343e-03 0.0000000000000000e+00  3.0925490924135810e-06 -1.8530703531674348e-03 0.0000000000000000e+00  -6.6820497951766200e-06 -2.7406357549989016e-04 0.0000000000000000e+00  3.2052568508622474e-06 -1.8459716117865885e-03 0.0000000000000000e+00  -9.8517963079189435e-08 -4.4780043971899466e-04 0.0000000000000000e+00  1.0400579780900736e-05 -7.6605875074622822e-04 0.0000000000000000e+00  3.0383028588885034e-06 -1.8357202107001302e-03 0.0000000000000000e+00  1.2302452148482719e-06 -9.8160485233358616e-04 0.0000000000000000e+00  2.9725654674762065e-06 -1.8150033119091469e-03 0.0000000000000000e+00  1.8661763226086291e-06 -1.1515905309644279e-03 0.0000000000000000e+00  2.0980933316681514e-06 -1.3376851592690542e-03 0.0000000000000000e+00  1.8853391757498358e-06 -1.7822833993687899e-03 0.0000000000000000e+00  3.0140635163841920e-06 -1.7361833598986557e-03 0.0000000000000000e+00  3.2110588213239834e-06 -1.4586982198682872e-03 0.0000000000000000e+00  2.7423389016643351e-06 -1.5656577634970553e-03 0.0000000000000000e+00  2.8741390495156142e-06 -1.6721379591774440e-03 0.0000000000000000e+00  4.3582590152167781e-07 -5.6372137090702926e-04 0.0000000000000000e+00  3.1004341225724481e-06 -1.8519618889940551e-03 0.0000000000000000e+00  1.8245304085340776e-06 -1.6166535147866534e-03 0.0000000000000000e+00  2.7757693251675581e-06 -8.8274844858923264e-04 0.0000000000000000e+00  3.4646436982632771e-06 -1.2585822309957504e-03 0.0000000000000000e+00  -4.8073994574195207e-08 -1.9395616468189831e-04 0.0000000000000000e+00  3.5380729063482273e-06 -1.8437515229725034e-03 0.0000000000000000e+00  7.6985340596549234e-06 -5.7652449479226404e-05 0.0000000000000000e+00  1.0234064874362010e-05 -1.7609282093809739e-03 0.0000000000000000e+00  6.5893161852551749e-06 -1.8259310448453941e-03 0.0000000000000000e+00  5.2358742625491198e-06 -1.8422343010996243e-03 0.0000000000000000e+00  -1.6304811444736238e-05 -1.4018132064909060e-03 0.0000000000000000e+00  8.2515216363043159e-06 -1.7996653066121211e-03 0.0000000000000000e+00  4.2019194727595055e-06 -1.8508412092297036e-03 0.0000000000000000e+00  1.2611836001574614e-05 -1.7074463773004798e-03 0.0000000000000000e+00  3.4551606610682724e-06 -1.8538422045455063e-03 0.0000000000000000e+00  -1.3208285119771080e-05 -1.5156555397854525e-03 0.0000000000000000e+00  -2.2741455302163381e-05 -1.0648154629778939e-03 0.0000000000000000e+00  -2.3172092266750072e-05 -3.6877117586796098e-04 0.0000000000000000e+00  3.5953103386520152e-06 -1.8479601876008440e-03 0.0000000000000000e+00  3.2866725223009024e-06 -1.8532149717085200e-03 0.0000000000000000e+00  3.3875328534820100e-05 -6.5951160602233517e-04 0.0000000000000000e+00  2.9638329251836700e-06 -1.8533846893197881e-03 0.0000000000000000e+00  -4.4229362628777754e-05 -6.8429372405850823e-04 0.0000000000000000e+00  2.6818648244087895e-06 -1.8538988997401898e-03 0.0000000000000000e+00  1.4587051638687268e-06 -1.8515623875394022e-03 0.0000000000000000e+00  -2.4431002633518993e-07 -1.8438956022926050e-03 0.0000000000000000e+00  2.2196613164863964e-06 -1.8473780991885669e-03 0.0000000000000000e+00  4.0003352941768974e-05 -3.4507712285922697e-04 0.0000000000000000e+00  -5.3808714211607372e-06 -1.8041581623786979e-03 0.0000000000000000e+00  -2.5085360599170532e-06 -1.8288576026951266e-03 0.0000000000000000e+00  3.4861046438160640e-05 -1.3830522204104042e-03 0.0000000000000000e+00  4.3466440546411634e-05 -1.0403392637809961e-03 0.0000000000000000e+00  -9.6492049374623575e-06 -1.7537932640867867e-03 0.0000000000000000e+00  -1.3038549980745344e-05 -1.7162575581625040e-03 0.0000000000000000e+00  3.0249338787512144e-05 -1.4998243689702360e-03 0.0000000000000000e+00  -5.7851060532872642e-06 -7.6615272367840725e-06 0.0000000000000000e+00  4.5569733554342041e-06 -6.0984535552176497e-06 0.0000000000000000e+00  2.2489373435055456e-05 -1.6524162942846950e-03 0.0000000000000000e+00  -3.5933305152857406e-05 -1.1914985205077726e-03 0.0000000000000000e+00  -4.5087830572349291e-05 -8.0962890398564161e-04 0.0000000000000000e+00  -3.0216684707386116e-05 -1.5228544785308350e-04 0.0000000000000000e+00  -3.5316527043333020e-05 -2.4257124416838123e-04 0.0000000000000000e+00  2.6466271747776212e-05 -1.5962644222113299e-03 0.0000000000000000e+00  -4.3898765442864554e-05 -9.2254034636109043e-04 0.0000000000000000e+00  -3.4765167202646778e-05 -1.2907208273194059e-03 0.0000000000000000e+00  -4.3201563828409426e-05 -5.2098553081306241e-04 0.0000000000000000e+00  2.4692833458655832e-06 -1.8511368662587058e-03 0.0000000000000000e+00  3.7697686370000338e-06 -1.8510735527276741e-03 0.0000000000000000e+00  4.3906248052991013e-05 -5.1626436258980313e-04 0.0000000000000000e+00  -2.3560599191006563e-05 -7.7903715178534384e-05 0.0000000000000000e+00  1.9294483008606896e-06 -1.8447522410027933e-03 0.0000000000000000e+00  -2.0485430485186423e-05 -1.6515310546490693e-03 0.0000000000000000e+00  -2.2019920451888107e-05 -1.5946446026246829e-03 0.0000000000000000e+00  5.6581622320884663e-05 -8.0500723265289028e-04 0.0000000000000000e+00  3.5866378116476286e-05 -1.4923847416530443e-04 0.0000000000000000e+00  4.3775308208007950e-05 -2.4446956866872537e-04 0.0000000000000000e+00  4.7220651400322976e-05 -1.1925121212600566e-03 0.0000000000000000e+00  5.9989390177556786e-05 -9.1924210243065252e-04 0.0000000000000000e+00  5.0207881325260366e-05 -1.2876721575559057e-03 0.0000000000000000e+00  -1.5525384517810023e-05 -4.3103622921149027e-05 0.0000000000000000e+00  2.0781876991777988e-06 -1.8429110287701657e-03 0.0000000000000000e+00  2.2355682367739973e-06 -1.8534214310344313e-03 0.0000000000000000e+00  7.1410698912122737e-07 -1.8491846511468587e-03 0.0000000000000000e+00  4.6685619564279544e-05 -4.0941417174503359e-04 0.0000000000000000e+00  -1.3948366458485161e-06 -1.8388531164932702e-03 0.0000000000000000e+00  2.1833709149343772e-06 -1.8488638718820311e-03 0.0000000000000000e+00  -4.1534476856051085e-06 -1.8202763750023677e-03 0.0000000000000000e+00  -7.6344816422576103e-06 -1.7912442338272020e-03 0.0000000000000000e+00  4.7853506252098352e-05 -1.1039908777903237e-03 0.0000000000000000e+00  -9.8772099085528237e-06 -1.7713189285340548e-03 0.0000000000000000e+00  3.7331574771141074e-05 -1.4310542939759494e-03 0.0000000000000000e+00  -1.6554212446326394e-05 -1.6916047481830183e-03 0.0000000000000000e+00  3.1918943012467276e-05 -1.5400054381256045e-03 0.0000000000000000e+00  4.1620993571104095e-06 -1.8449674436446192e-03 0.0000000000000000e+00  2.6768797094344988e-06 -1.8526393213276454e-03 0.0000000000000000e+00  -5.0970681892527613e-05 -6.1503238105974198e-04 0.0000000000000000e+00  2.8583111089384305e-05 -8.3258102432724976e-05 0.0000000000000000e+00  1.5555871799037606e-05 -3.4861572075259550e-05 0.0000000000000000e+00  1.9455172255501600e-05 -1.7450690255538870e-03 0.0000000000000000e+00  -2.7218991742443884e-05 -1.5468195543340971e-03 0.0000000000000000e+00  1.4997714737648599e-05 -1.7884027323893756e-03 0.0000000000000000e+00  5.8617737393319955e-06 -1.8486377249407270e-03 0.0000000000000000e+00  1.1103735615308820e-05 -1.8184291864467845e-03 0.0000000000000000e+00  8.1516444776586658e-06 -1.8377438070707021e-03 0.0000000000000000e+00  -2.7829481079737750e-05 -1.4421047436182573e-03 0.0000000000000000e+00  2.3546243684783843e-05 -1.6869378301234313e-03 0.0000000000000000e+00  -4.4973243713390463e-05 -1.1155129054706361e-03 0.0000000000000000e+00  -3.8321608763966091e-05 -1.3605800103014870e-03 0.0000000000000000e+00  3.4426758301635674e-06 -1.8538712003314300e-03 0.0000000000000000e+00  -5.0141374029255186e-05 -1.0113062486138095e-03 0.0000000000000000e+00  4.0474295358767948e-06 -1.8533046866925859e-03 0.0000000000000000e+00  -4.7868667979982115e-05 -4.2065777211549590e-04 0.0000000000000000e+00  -4.6419465504909099e-05 -3.1745900960729589e-04 0.0000000000000000e+00  4.1556882855397104e-06 -1.8467881196459592e-03 0.0000000000000000e+00  4.0609882502075621e-06 -1.8491571107733939e-03 0.0000000000000000e+00  5.7607099278857371e-06 -1.8459829831991765e-03 0.0000000000000000e+00  7.7080342411681553e-06 -1.8326172244085845e-03 0.0000000000000000e+00  1.3904523199178080e-05 -1.7754166723757607e-03 0.0000000000000000e+00  4.4087021150617885e-06 -1.8523629938401779e-03 0.0000000000000000e+00  1.0174047361902013e-05 -1.8100819661268841e-03 0.0000000000000000e+00  1.7972939922765596e-05 -1.7270622174441041e-03 0.0000000000000000e+00  -2.5822823185248144e-05 -1.4792582532237343e-03 0.0000000000000000e+00  5.4755281726931267e-05 -6.0274707446044751e-04 0.0000000000000000e+00  3.6178628092847638e-06 -1.8524646103499102e-03 0.0000000000000000e+00  3.1597721491567488e-06 -1.8536423954954551e-03 0.0000000000000000e+00  5.4395532945266589e-05 -7.1680991217271746e-04 0.0000000000000000e+00  -1.1584885454812776e-05 -1.7361388131654498e-03 0.00000000000