<?xml version="1.0"?>
<VTKFile type="UnstructuredGrid"  version="0.1"  >
<UnstructuredGrid>
<Piece  NumberOfPoints="439" NumberOfCells="725">
<Points>
<DataArray  type="Float64"  NumberOfComponents="3"  format="ascii">0.5994646574850172 0.1758267919464822 0  0.6003546712042236 0.1958266229364244 0  0.2489897949 0.21 0  0.2489897949 0.19 0  0.5999096807922872 0.1858267009707784 0  0.2496355385699469 0.2060260530378829 0  0.249959460510575 0.2020130349814059 0  0.2499594605105767 0.1979869650186357 0  0.24963553856995 0.1939739469621422 0  0.2539650834788689 0.2099717023559758 0  0.258942239527903 0.2099416917904281 0  0.2639185551406417 0.209904028763204 0  0.2688924927766729 0.2098433099103894 0  0.2738640598563812 0.2097708179983229 0  0.2788360324827641 0.209681432978271 0  0.2838045421521502 0.2095839714069658 0  0.2887698645464674 0.2094718630102314 0  0.293734717019803 0.2093488270565296 0  0.2986973925198916 0.2092151851918971 0  0.3036604977124989 0.2090679759376072 0  0.3086228690110697 0.2089188927305797 0  0.3135813292593511 0.2087550533239216 0  0.318542089921908 0.2085842358466933 0  0.3234982872874262 0.2084067142948264 0  0.3284544522932833 0.2082203518712285 0  0.3334090029098756 0.2080289858513407 0  0.3383622449378049 0.2078294818914422 0  0.3433137513105708 0.2076271206032262 0  0.3482644689844396 0.2074185377198238 0  0.3532139140203259 0.2072059345031178 0  0.3581621203718718 0.2069897847978439 0  0.3631103006802712 0.2067682977389373 0  0.3680580301423986 0.2065462972014564 0  0.3730043948014402 0.2063198214877245 0  0.3779499128759382 0.2060920261601875 0  0.3828948531314706 0.2058615823992533 0  0.3878391319924581 0.2056294829815009 0  0.3927827326559272 0.2053961484960622 0  0.3977261423082147 0.2051610659168415 0  0.4026692251259347 0.2049259670228563 0  0.4076115907180811 0.2046896368656005 0  0.4125537272088264 0.2044529147508039 0  0.4174956324495027 0.2042161889388067 0  0.422437171322366 0.203979167749178 0  0.4273785302746703 0.2037422475154669 0  0.4323197131777783 0.2035055914484152 0  0.4372606424787285 0.2032692732781764 0  0.4422015929819147 0.2030333455001887 0  0.4471425156229009 0.2027980451483098 0  0.4520833089862867 0.2025633119201546 0  0.4570240005052505 0.2023292856491483 0  0.4619648902798518 0.2020959965490172 0  0.4669056846778595 0.201863464035558 0  0.4718464750890168 0.2016318017282044 0  0.4767875431411588 0.2014009827613568 0  0.4817285939009953 0.201170962469967 0  0.4866696943992015 0.2009418603173246 0  0.4916110993147637 0.20071356768763 0  0.4965525299976646 0.200486048498844 0  0.501494048443222 0.2002593970424534 0  0.5064358780785648 0.2000334971606961 0  0.5113777631390702 0.1998082798839244 0  0.5163197668645235 0.1995838262335625 0  0.5212620673968027 0.1993600021246836 0  0.5262044147355971 0.1991367530077747 0  0.5311469014130271 0.198914106161858 0  0.5360895894372827 0.198691960642819 0  0.5410324736480657 0.1984701915188082 0  0.545975545336512 0.1982488915202701 0  0.5509187058401974 0.198027995145563 0  0.555861913550871 0.1978071698114978 0  0.5608053108616935 0.1975867373635788 0  0.5657487194826898 0.1973664710194091 0  0.5706922835611216 0.197146324977065 0  0.5756359239814285 0.1969263379629183 0  0.5805796091230183 0.1967063588522298 0  0.5855233569975191 0.1964864356179226 0  0.5904671209612948 0.1962665275418919 0  0.5954108966712982 0.1960465800377923 0  0.5945208755501125 0.1760468050320891 0  0.589577045374073 0.1762668036333131 0  0.5846331831680071 0.17648677587625 0  0.5796892504744904 0.1767067703835908 0  0.5747452527823043 0.1769268269209416 0  0.5698011881343247 0.1771469174603059 0  0.5648570348813028 0.1773671775591023 0  0.5599127494750914 0.1775876071425768 0  0.5549684532742624 0.1778081926992693 0  0.5500240422191612 0.1780291283248217 0  0.5450795584356742 0.1782502653189715 0  0.5401350844278502 0.1784718494028942 0  0.5351904824870503 0.178693979965445 0  0.530245772210831 0.1789162460750091 0  0.5253011463737142 0.1791392343223591 0  0.5203563847785739 0.1793629967050319 0  0.5154115293454804 0.179586956507902 0  0.5104668745714287 0.179811859057934 0  0.5055220961968441 0.1800376834410968 0  0.500577237145418 0.1802637441208302 0  0.4956326737340844 0.180490919370894 0  0.4906880210339851 0.1807191280251219 0  0.4857433134054074 0.1809475969926201 0  0.4807989910179678 0.1811772766385362 0  0.4758546334497265 0.1814080349975731 0  0.4709102821280639 0.1816391414748343 0  0.4659662509371357 0.1818713391878234 0  0.4610223245513719 0.1821045758677541 0  0.4560785260921399 0.1823380739893422 0  0.4511352377363149 0.1825725936191995 0  0.446192041932785 0.1828080678623886 0  0.4412489692237178 0.1830436857485268 0  0.436306349463241 0.1832801530780115 0  0.4313640262109159 0.1835168448702152 0  0.426422056395561 0.1837539617278243 0  0.4214804926277937 0.1839912029157968 0  0.4165392803701776 0.1842285761774355 0  0.4115984181025701 0.1844658067512084 0  0.4066580724077816 0.184702741457829 0  0.4017183264563872 0.1849391951989122 0  0.3967791236668831 0.1851747917751133 0  0.3918401911466529 0.1854096776340585 0  0.3869017398298174 0.1856432064442632 0  0.3819645140848306 0.1858757938009805 0  0.3770273340696921 0.1861060612322176 0  0.3720917303373205 0.1863341665328122 0  0.3671559462873232 0.1865601878130171 0  0.362221229760233 0.1867826683665826 0  0.3572866618115757 0.1870028709334604 0  0.3523527063742012 0.1872190100996979 0  0.3474212431408324 0.1874323716687442 0  0.3424890051803798 0.1876404681880208 0  0.3375598023685475 0.1878432305079913 0  0.3326290015858256 0.1880409615892509 0  0.3277001696727039 0.1882302012645412 0  0.3227726223091142 0.1884173418063937 0  0.3178450722188232 0.1885944687004985 0  0.3129219680805952 0.1887646258513863 0  0.3079963698859872 0.188927011740827 0  0.303072964392186 0.1890779108060812 0  0.2981495090589271 0.1892220046979211 0  0.2932268329907029 0.1893540871585994 0  0.288308833454973 0.1894779036704619 0  0.2833874905894538 0.1895892055406007 0  0.2784720480561154 0.1896888370499404 0  0.2735541855273354 0.1897727312803815 0  0.2686418170170161 0.1898435337624362 0  0.2637273916566661 0.1899037216663712 0  0.258813703620574 0.1899468811189941 0  0.2539014817135569 0.1899705477822591 0  0.5996871712598488 0.1808267478646033 0  0.6001321918917165 0.1908266605568896 0  0.2589777763280513 0.2005210322572337 0  0.5430556660255687 0.188359768398429 0  0.5681480165302322 0.1872102880096858 0  0.2774644109441742 0.2005208687826196 0  0.5137556036064287 0.1895824725749919 0  0.5285862505825469 0.1889116544043961 0  0.2944909398145952 0.198631911740404 0  0.5826674204370771 0.1861358857903508 0  0.3104061182253631 0.1988373338415856 0  0.3370151924182191 0.1987131452591417 0  0.498925657109378 0.1902594632248034 0  0.3552545282862107 0.1971097657719874 0  0.4840965907470753 0.1909436138335283 0  0.3707019015416415 0.1964301996320835 0  0.3898411947927297 0.1955215577974393 0  0.4688821388855772 0.1912922131183939 0  0.4540801020694482 0.1924499396441783 0  0.4043028856342112 0.194930543774629 0  0.4194879934789847 0.1941039791308058 0  0.4386294804434868 0.193171516322969 0  0.3202380085478321 0.1985370770527519 0  0.5583143839113957 0.1876690902809516 0  0.4279923372992072 0.1935442091294774 0  0.346749318655098 0.1976293343090735 0  0.3813373314573578 0.1960735903748192 0  0.2860675264869482 0.1995862933078152 0  0.5909539886354779 0.1844666351326524 0  0.268008885113603 0.2015493941367925 0  0.4615994354943054 0.1943486692376091 0  0.4912532705566632 0.1929649975256042 0  0.5060816951599434 0.1922844889152533 0  0.3971462547127748 0.1929205715968346 0  0.4764258438512274 0.1936529711748007 0  0.5209110609510844 0.1916106937381199 0  0.4467739670399246 0.1950515416433149 0  0.5357412314950144 0.1909424719047461 0  0.4119687059339712 0.1922109243064436 0  0.3625660772197891 0.1945313984006913 0  0.3033023393638686 0.1968370767514904 0  0.5750903455183913 0.1846761378813506 0  0.5502407634230814 0.1851613353349758 0  0.3282868697832024 0.2011007635322017 0  0.548499233084088 0.1919640812715251 0  0.3300742394478827 0.1943127571742338 0  0.5376564174835959 0.1847195887521696 0  0.5228241967859991 0.1853873820277806 0  0.5079922958144206 0.1860606340788032 0  0.5775537538086214 0.19070370553787 0  0.3012889740503295 0.2030240079710957 0  0.4783304207488448 0.1874278156197156 0  0.4931609487380235 0.1867405036807115 0  0.3952462428239781 0.1991456970596433 0  0.3606476702191262 0.200749989924806 0  0.45912086001811 0.1883295773318257 0  0.4486728673264412 0.1888251858750152 0  0.4100713722929007 0.1984372028056282 0  0.2557728755303478 0.1960715325649698 0  0.2550256591535051 0.2034312432827328 0  0.4349131068364999 0.1971440535608673 0  0.3744249079417916 0.1924646113205092 0  0.340445662952287 0.1937840485419575 0  0.2812231665087952 0.1956960166540908 0  0.2911739629834749 0.1955039783482455 0  0.4247939167024325 0.1978090349203794 0  0.3499702820388981 0.1933818377454356 0  0.38454045018317 0.1918125682883616 0  0.3164936383273279 0.1948155898596103 0  0.5622331989305516 0.1912923794622286 0  0.5621758095822932 0.1835744795707324 0  0.3163619150986606 0.2025339850968552 0  0.2710312364699605 0.1957970428799582 0  0.5874213584463555 0.1911144052494313 0  0.4343814843316832 0.1888465154495315 0  0.4240671237001226 0.1897526608253904 0  0.3404310807509947 0.2025402583496549 0  0.2809597264051399 0.2044289765959709 0  0.2915225299234742 0.2041956344243332 0  0.3749405759505348 0.2007609000691866 0  0.3501167386665783 0.2025131541555669 0  0.3847253275927486 0.2009455395134838 0  0.2647776099235482 0.1961164370706449 0  0.5944143364674341 0.1901207201609245 0  0.5318106959872196 0.1845006841325186 0  0.5169784481732588 0.1851705059929747 0  0.3071202209569741 0.2033183442700648 0  0.5021465522233994 0.1858462663049402 0  0.5717635803460093 0.1914342815086637 0  0.4873152801712706 0.1865290154269369 0  0.4725282885600733 0.1872130652233377 0  0.366492167784562 0.2009801970050193 0
[...]
<PointData  Vectors="f_20-1"> 
<DataArray  type="Float64"  Name="f_20-1"  NumberOfComponents="3" format="ascii">-5.3534251498280766e-04 -1.4173208053517754e-02 0.0000000000000000e+00  3.5467120422372276e-04 -1.4173377063575642e-02 0.0000000000000000e+00  0.0000000000000000e+00 0.0000000000000000e+00 0.0000000000000000e+00  0.0000000000000000e+00 0.0000000000000000e+00 0.0000000000000000e+00  -9.0319207712616787e-05 -1.4173299029221624e-02 0.0000000000000000e+00  0.0000000000000000e+00 0.0000000000000000e+00 0.0000000000000000e+00  0.0000000000000000e+00 0.0000000000000000e+00 0.0000000000000000e+00  0.0000000000000000e+00 0.0000000000000000e+00 0.0000000000000000e+00  0.0000000000000000e+00 0.0000000000000000e+00 0.0000000000000000e+00  3.1482873239564312e-05 -2.8297644024158903e-05 0.0000000000000000e+00  6.4833216648768770e-05 -5.8308209571856598e-05 0.0000000000000000e+00  9.7343123749592042e-05 -9.5971236795970087e-05 0.0000000000000000e+00  1.2747505414297482e-04 -1.5669008961059742e-04 0.0000000000000000e+00  1.5523642822432194e-04 -2.2918200167709472e-04 0.0000000000000000e+00  1.8340334898878601e-04 -3.1856702172902560e-04 0.0000000000000000e+00  2.0810731275645858e-04 -4.1602859303416847e-04 0.0000000000000000e+00  2.2962400145080930e-04 -5.2813698976855066e-04 0.0000000000000000e+00  2.5067076915073419e-04 -6.5117294347043209e-04 0.0000000000000000e+00  2.6954056362089114e-04 -7.8481480810293244e-04 0.0000000000000000e+00  2.8884005059907751e-04 -9.3202406239277665e-04 0.0000000000000000e+00  3.0740564355162975e-04 -1.0811072694202610e-03 0.0000000000000000e+00  3.2206018621461886e-04 -1.2449466760784064e-03 0.0000000000000000e+00  3.3901514315304245e-04 -1.4157641533067145e-03 0.0000000000000000e+00  3.5140680305307398e-04 -1.5932857051735867e-03 0.0000000000000000e+00  3.6376610329167145e-04 -1.7796481287715190e-03 0.0000000000000000e+00  3.7451101425486086e-04 -1.9710141486592439e-03 0.0000000000000000e+00  3.8394733657646965e-04 -2.1705181085578304e-03 0.0000000000000000e+00  3.9164800371319493e-04 -2.3728793967738343e-03 0.0000000000000000e+00  3.9855997196366010e-04 -2.5814622801761896e-03 0.0000000000000000e+00  4.0419930223147368e-04 -2.7940654968822481e-03 0.0000000000000000e+00  4.0859994815906862e-04 -3.0102152021560719e-03 0.0000000000000000e+00  4.1297455094013475e-04 -3.2317022610626814e-03 0.0000000000000000e+00  4.1689830744909577e-04 -3.4537027985436079e-03 0.0000000000000000e+00  4.1945726086135311e-04 -3.6801785122755224e-03 0.0000000000000000e+00  4.2116962975046666e-04 -3.9079738398125315e-03 0.0000000000000000e+00  4.2230417965869436e-04 -4.1384176007466991e-03 0.0000000000000000e+00  4.2277733502433889e-04 -4.3705170184990642e-03 0.0000000000000000e+00  4.2257229286410468e-04 -4.6038515039377517e-03 0.0000000000000000e+00  4.2217623954407714e-04 -4.8389340831584702e-03 0.0000000000000000e+00  4.2145335163615148e-04 -5.0740329771436273e-03 0.0000000000000000e+00  4.2001323817033150e-04 -5.3103631343994441e-03 0.0000000000000000e+00  4.1834402329530673e-04 -5.5470852491960529e-03 0.0000000000000000e+00  4.1644355835088198e-04 -5.7838110611932369e-03 0.0000000000000000e+00  4.1417672560238616e-04 -6.0208322508220379e-03 0.0000000000000000e+00  4.1172997227844124e-04 -6.2577524845330596e-03 0.0000000000000000e+00  4.0910716975297733e-04 -6.4944085515848118e-03 0.0000000000000000e+00  4.0623076505126127e-04 -6.7307267218236202e-03 0.0000000000000000e+00  4.0337556258178035e-04 -6.9666544998112740e-03 0.0000000000000000e+00  4.0049249790418724e-04 -7.2019548516901784e-03 0.0000000000000000e+00  3.9748015564219073e-04 -7.4366880798454049e-03 0.0000000000000000e+00  3.9436596896408728e-04 -7.6707143508517039e-03 0.0000000000000000e+00  3.9145003793583373e-04 -7.9040034509828133e-03 0.0000000000000000e+00  3.8843873029298961e-04 -8.1365359644420213e-03 0.0000000000000000e+00  3.8542343581715724e-04 -8.3681982717955239e-03 0.0000000000000000e+00  3.8268578229207407e-04 -8.5990172386431821e-03 0.0000000000000000e+00  3.7993083648187335e-04 -8.8290375300329807e-03 0.0000000000000000e+00  3.7722562902541945e-04 -9.0581396826754316e-03 0.0000000000000000e+00  3.7482483895706268e-04 -9.2864323123699431e-03 0.0000000000000000e+00  3.7244981620357853e-04 -9.5139515011559428e-03 0.0000000000000000e+00  3.7016255613223607e-04 -9.7406029575466142e-03 0.0000000000000000e+00  3.6818648581550154e-04 -9.9665028393039149e-03 0.0000000000000000e+00  3.6626584068297213e-04 -1.0191720116075619e-02 0.0000000000000000e+00  3.6446386051992147e-04 -1.0416173766437499e-02 0.0000000000000000e+00  3.6295868716122606e-04 -1.0639997875316380e-02 0.0000000000000000e+00  3.6150032029701672e-04 -1.0863246992225285e-02 0.0000000000000000e+00  3.6018129208805714e-04 -1.1085893838141972e-02 0.0000000000000000e+00  3.5906361068402539e-04 -1.1308039357180931e-02 0.0000000000000000e+00  3.5814211582902599e-04 -1.1529808481191834e-02 0.0000000000000000e+00  3.5740809865927626e-04 -1.1751108479729834e-02 0.0000000000000000e+00  3.5676289670658203e-04 -1.1972004854437002e-02 0.0000000000000000e+00  3.5616490172550201e-04 -1.2192830188502203e-02 0.0000000000000000e+00  3.5575650690512946e-04 -1.2413262636421177e-02 0.0000000000000000e+00  3.5535942224178941e-04 -1.2633528980590931e-02 0.0000000000000000e+00  3.5511779500990357e-04 -1.2853675022935005e-02 0.0000000000000000e+00  3.5495250968257681e-04 -1.3073662037081673e-02 0.0000000000000000e+00  3.5483194563490030e-04 -1.3293641147770163e-02 0.0000000000000000e+00  3.5477411448509098e-04 -1.3513564382077386e-02 0.0000000000000000e+00  3.5473237261385613e-04 -1.3733472458108095e-02 0.0000000000000000e+00  3.5470237695771193e-04 -1.3953419962207668e-02 0.0000000000000000e+00  -5.3531874427091314e-04 -1.3953194967910903e-02 0.0000000000000000e+00  -5.3534321468508977e-04 -1.3733196366686932e-02 0.0000000000000000e+00  -5.3539971511232676e-04 -1.3513224123750053e-02 0.0000000000000000e+00  -5.3552670298236940e-04 -1.3293229616409155e-02 0.0000000000000000e+00  -5.3571868954713209e-04 -1.3073173079058375e-02 0.0000000000000000e+00  -5.3597763190608950e-04 -1.2853082539694135e-02 0.0000000000000000e+00  -5.3632517931526211e-04 -1.2632822440897716e-02 0.0000000000000000e+00  -5.3680487989753905e-04 -1.2412392857423207e-02 0.0000000000000000e+00  -5.3729537509567069e-04 -1.2191807300730667e-02 0.0000000000000000e+00  -5.3790072454219849e-04 -1.1970871675178340e-02 0.0000000000000000e+00  -5.3857880243001616e-04 -1.1749734681028443e-02 0.0000000000000000e+00  -5.3924710465465514e-04 -1.1528150597105777e-02 0.0000000000000000e+00  -5.4004333984576181e-04 -1.1306020034555003e-02 0.0000000000000000e+00  -5.4094791043203874e-04 -1.1083753924990931e-02 0.0000000000000000e+00  -5.4176804194860462e-04 -1.0860765677640960e-02 0.0000000000000000e+00  -5.4272393145042769e-04 -1.0637003294968118e-02 0.0000000000000000e+00  -5.4377365894148438e-04 -1.0413043492097943e-02 0.0000000000000000e+00  -5.4462272739389699e-04 -1.0188140942065972e-02 0.0000000000000000e+00  -5.4559539637367765e-04 -9.9623165589031813e-03 0.0000000000000000e+00  -5.4664874216258296e-04 -9.7362558791698212e-03 0.0000000000000000e+00  -5.4740644788760782e-04 -9.5090806291059718e-03 0.0000000000000000e+00  -5.4825344236799722e-04 -9.2808719748780633e-03 0.0000000000000000e+00  -5.4915536532683861e-04 -9.0524030073799184e-03 0.0000000000000000e+00  -5.4967204713683357e-04 -8.8227233614637524e-03 0.0000000000000000e+00  -5.5022390977013289e-04 -8.5919650024269354e-03 0.0000000000000000e+00  -5.5076952580446854e-04 -8.3608585251657066e-03 0.0000000000000000e+00  -5.5099501111982455e-04 -8.1286608121765528e-03 0.0000000000000000e+00  -5.5111569126293732e-04 -7.8954241322459606e-03 0.0000000000000000e+00  -5.5110844487041852e-04 -7.6619260106578577e-03 0.0000000000000000e+00  -5.5059109506591110e-04 -7.4274063808004807e-03 0.0000000000000000e+00  -5.4998119298660234e-04 -7.1919321376114230e-03 0.0000000000000000e+00  -5.4924819642883827e-04 -6.9563142514731625e-03 0.0000000000000000e+00  -5.4806225128873958e-04 -6.7198469219884897e-03 0.0000000000000000e+00  -5.4657979799730360e-04 -6.4831551297848565e-03 0.0000000000000000e+00  -5.4474390772557514e-04 -6.2460382721757426e-03 0.0000000000000000e+00  -5.4250196985436688e-04 -6.0087970842031546e-03 0.0000000000000000e+00  -5.3990852182800894e-04 -5.7714238225644674e-03 0.0000000000000000e+00  -5.3696508378928013e-04 -5.5341932487915921e-03 0.0000000000000000e+00  -5.3350507291792884e-04 -5.2972585421709843e-03 0.0000000000000000e+00  -5.2944531866060390e-04 -5.0608048010878639e-03 0.0000000000000000e+00  -5.2484240250707766e-04 -4.8252082248867300e-03 0.0000000000000000e+00  -5.1996921710192889e-04 -4.5903223659415002e-03 0.0000000000000000e+00  -5.1461482829082063e-04 -4.3567935557367694e-03 0.0000000000000000e+00  -5.0803486765177029e-04 -4.1242061990195136e-03 0.0000000000000000e+00  -5.0140917713364485e-04 -3.8939387677823971e-03 0.0000000000000000e+00  -4.9320720385670805e-04 -3.6658334671877645e-03 0.0000000000000000e+00  -4.8518554818533514e-04 -3.4398121869828970e-03 0.0000000000000000e+00  -4.7609636962833436e-04 -3.2173316334173463e-03 0.0000000000000000e+00  -4.6685861263511642e-04 -2.9971290665395719e-03 0.0000000000000000e+00  -4.5700834438782816e-04 -2.7809899003021312e-03 0.0000000000000000e+00  -4.4466587209864163e-04 -2.5676283312557899e-03 0.0000000000000000e+00  -4.3309812691225076e-04 -2.3595318119791812e-03 0.0000000000000000e+00  -4.1849523310609135e-04 -2.1567694920086276e-03 0.0000000000000000e+00  -4.0549031018954115e-04 -1.9590384107490929e-03 0.0000000000000000e+00  -3.9051651767124120e-04 -1.7697987354588147e-03 0.0000000000000000e+00  -3.7425817560301746e-04 -1.5826581936063209e-03 0.0000000000000000e+00  -3.5800256023595545e-04 -1.4055312995015347e-03 0.0000000000000000e+00  -3.3730099280597368e-04 -1.2353741486137023e-03 0.0000000000000000e+00  -3.1909348177098590e-04 -1.0729882591730140e-03 0.0000000000000000e+00  -2.9869326993375373e-04 -9.2208919391883570e-04 0.0000000000000000e+00  -2.7834289755413464e-04 -7.7799530207890157e-04 0.0000000000000000e+00  -2.5721326013998877e-04 -6.4591284140058040e-04 0.0000000000000000e+00  -2.3140709021435120e-04 -5.2209632953803379e-04 0.0000000000000000e+00  -2.0894425007573773e-04 -4.1079445939931484e-04 0.0000000000000000e+00  -1.8058107775624762e-04 -3.1116295005962789e-04 0.0000000000000000e+00  -1.5463790088892290e-04 -2.2726871961847061e-04 0.0000000000000000e+00  -1.2320070556986454e-04 -1.5646623756378954e-04 0.0000000000000000e+00  -9.3820360281423638e-05 -9.6278333628833533e-05 0.0000000000000000e+00  -6.3702690735328778e-05 -5.3118881005893376e-05 0.0000000000000000e+00  -3.2118892100984372e-05 -2.9452217740954636e-05 0.0000000000000000e+00  -3.1282874015107494e-04 -1.4173252135374988e-02 0.0000000000000000e+00  1.3219189171671681e-04 -1.4173339443083287e-02 0.0000000000000000e+00  4.3497964020483128e-06 -3.1357085606634057e-05 0.0000000000000000e+00  -9.0568359739034681e-05 -1.1640231601540034e-02 0.0000000000000000e+00  -9.1772946584067872e-05 -1.2760170571212901e-02 0.0000000000000000e+00  1.3018232371800458e-05 -2.7332315957304836e-04 0.0000000000000000e+00  -9.3979770468167269e-05 -1.0319870074099961e-02 0.0000000000000000e+00  -9.4749911191149982e-05 -1.0990688244700777e-02 0.0000000000000000e+00  -1.9955391169509586e-05 -6.5927910013456928e-04 0.0000000000000000e+00  -1.1066270141551454e-04 -1.3407094309984092e-02 0.0000000000000000e+00  -6.7214315625132677e-06 -1.1331247393121821e-03 0.0000000000000000e+00  1.5016876364014535e-05 -2.1163159842550422e-03 0.0000000000000000e+00  -9.2509150667860219e-05 -9.6428794242868297e-03 0.0000000000000000e+00  -2.7089284693585625e-05 -2.8902342280733464e-03 0.0000000000000000e+00  -9.0158396117210118e-05 -8.9587288155565815e-03 0.0000000000000000e+00  -3.5469848913625304e-05 -3.5840380632854133e-03 0.0000000000000000e+00  -4.7062717519870258e-05 -4.4784422026435036e-03 0.0000000000000000e+00  -1.0361616369626204e-04 -8.2494593072755563e-03 0.0000000000000000e+00  -7.7629614748469725e-05 -7.5500603557315327e-03 0.0000000000000000e+00  -5.0605767621843986e-05 -5.1671135762953856e-03 0.0000000000000000e+00  -6.3098264972196296e-05 -5.8960208692998492e-03 0.0000000000000000e+00  -7.2497420964447648e-05 -6.8142459817081618e-03 0.0000000000000000e+00  -9.2664778381875183e-06 -1.4718071618879706e-03 0.0000000000000000e+00  -9.0970196689364006e-05 -1.2322025504406101e-02 0.0000000000000000e+00  -7.4377389506228645e-05 -6.3046956913466855e-03 0.0000000000000000e+00  -1.6675971449398170e-05 -2.5217608703640205e-03 0.0000000000000000e+00  -3.5303108532943643e-05 -4.0775048046328378e-03 0.0000000000000000e+00  -8.1120526153508933e-07 -4.5525126280302207e-04 0.0000000000000000e+00  -1.6839254264154849e-04 -1.3778280802221959e-02 0.0000000000000000e+00  1.9568967740395827e-05 -1.2573150993645319e-04 0.0000000000000000e+00  2.5995251677609245e-05 -7.9016940911912272e-03 0.0000000000000000e+00  1.6996080317793020e-05 -9.2853658032048935e-03 0.0000000000000000e+00  1.4003566744944894e-05 -9.9658744135584943e-03 0.0000000000000000e+00  -1.5771135590265063e-04 -4.8290650743618704e-03 0.0000000000000000e+00  2.0986491737689171e-05 -8.5973921540044608e-03 0.0000000000000000e+00  1.1952241039009348e-05 -1.0639669590698463e-02 0.0000000000000000e+00  3.1943914158918074e-05 -7.1988216854851237e-03 0.0000000000000000e+00  1.0705668129604490e-05 -1.1307891424073718e-02 0.0000000000000000e+00  -1.6667725156046913e-04 -5.5387123647540259e-03 0.0000000000000000e+00  -1.3124890954613691e-04 -3.2182382705006028e-03 0.0000000000000000e+00  -6.9318298027481575e-05 -9.1255991969646023e-04 0.0000000000000000e+00  -1.9062595343162156e-04 -1.3073498789799690e-02 0.0000000000000000e+00  -2.1909249597467653e-04 -1.1967143138790928e-02 0.0000000000000000e+00  9.4096568518343434e-05 -1.7707579940389017e-03 0.0000000000000000e+00  8.1331034341853604e-05 -1.1876240297951151e-02 0.0000000000000000e+00  -1.6048763611608272e-04 -1.8469212563153137e-03 0.0000000000000000e+00  -2.6466774021547350e-04 -1.1405592912241398e-02 0.0000000000000000e+00  -2.6547132096621778e-04 -1.0737799636625137e-02 0.0000000000000000e+00  -2.6595517570171144e-04 -1.0064547585606619e-02 0.0000000000000000e+00  8.2222939911915592e-05 -1.3171112797718749e-02 0.0000000000000000e+00  1.0787578537473548e-04 -8.5081036449798498e-04 0.0000000000000000e+00  -2.6499600756636901e-04 -8.6973660446883847e-03 0.0000000000000000e+00  -2.6588513524364858e-04 -9.3846779836947430e-03 0.0000000000000000e+00  1.3283615221511245e-04 -4.7291212759532908e-03 0.0000000000000000e+00  1.4090348671450169e-04 -3.1248284107890595e-03 0.0000000000000000e+00  -2.6202082760460314e-04 -7.7956043325735818e-03 0.0000000000000000e+00  -2.5971519623930881e-04 -7.2999957893855353e-03 0.0000000000000000e+00  1.2654850427880823e-04 -5.4376155299708925e-03 0.0000000000000000e+00  -1.3424449849224325e-05 -1.4304460759643661e-05 0.0000000000000000e+00  1.0923122565181827e-05 -1.1399716378563819e-05 0.0000000000000000e+00  1.0995919003100883e-04 -6.6297042032881321e-03 0.0000000000000000e+00  -2.1129366661830153e-04 -3.7616309153460626e-03 0.0000000000000000e+00  -1.8017363414343337e-04 -2.2627436520314412e-03 0.0000000000000000e+00  -7.7001610188144821e-05 -3.5077553995942830e-04 0.0000000000000000e+00  -9.4675760514443112e-05 -5.7765451668273038e-04 0.0000000000000000e+00  1.2338312044326565e-04 -6.1441728855749838e-03 0.0000000000000000e+00  -1.9189369401488172e-04 -2.6649544487521767e-03 0.0000000000000000e+00  -2.2836548909938712e-04 -4.2342239058742737e-03 0.0000000000000000e+00  -1.3873021102814748e-04 -1.3438687037596899e-03 0.0000000000000000e+00  7.8197825210745206e-05 -1.2489269797670474e-02 0.0000000000000000e+00  -2.6557811968381498e-04 -1.2501712790405345e-02 0.0000000000000000e+00  1.2241151534775029e-04 -1.3339706456139127e-03 0.0000000000000000e+00  -5.7476950801656344e-05 -1.7260145262556925e-04 0.0000000000000000e+00  1.1992080599518722e-04 -1.3608382853650959e-02 0.0000000000000000e+00  -2.8647231258768682e-04 -6.6186305057198518e-03 0.0000000000000000e+00  -2.6252670767597252e-04 -6.1230372685158220e-03 0.0000000000000000e+00  1.7512966764235676e-04 -2.2537916794374393e-03 0.0000000000000000e+00  9.1233729046516515e-05 -3.4526518529478346e-04 0.0000000000000000e+00  1.1482660960195491e-04 -5.8531728276233787e-04 0.0000000000000000e+00  1.6918334004153721e-04 -3.7739539756688491e-03 0.0000000000000000e+00  1.9508977669161664e-04 -2.6621871630635608e-03 0.0000000000000000e+00  1.9703876351874586e-04 -4.2298018051521820e-03 0.0000000000000000e+00  -3.6876621956966436e-05 -9.2537227992526116e-05 0.0000000000000000e+00  8.9572101144805072e-05 -1.3920822197993721e-02 0.0000000000000000e+00  -2.8656505839484502e-04 -1.1143825772568639e-02 0.0000000000000000e+00  -2.8739575551385305e-04 -1.0474003912110692e-02 0.0000000000000000e+00  1.2789539670830761e-04 -1.0284591171902497e-03 0.0000000000000000e+00  -2.8787458852703264e-04 -9.7982436001462312e-03 0.0000000000000000e+00  1.0327677257420804e-04 -1.2912521878612401e-02 0.0000000000000000e+00  -2.8772952380348385e-04 -9.1154944781462258e-03 0.0000000000000000e+00  -2.8690896955303004e-04 -8.4271816676517227e-03 0.0000000000000000e+00  1.6199013180811982e-04 -3.3872578588406681e-03 0.0000000000000000e+00  -2.8600914015552769e-04 -8.0679723508756910e-03 0.0000000000000000e+00  1.5312866153212697e-04 -5.0069103785671696e-03 0.0000000000000000e+00  -2.8130527386385572e-04 -7.0222849730787193e-03 0.0000000000000000e+00  1.4684388199249663e-04 -5.7167941002038052e-03 0.0000000000000000e+00  -2.8205455733658374e-04 -1.3572842527392420e-02 0.0000000000000000e+00  1.0759981721623507e-04 -1.2132771345245990e-02 0.0000000000000000e+00  -1.7366198585525266e-04 -1.6279664413648355e-03 0.0000000000000000e+00  7.0941895919081975e-05 -1.8606010095360251e-04 0.0000000000000000e+00  3.7956840882991812e-05 -7.4371075936991365e-05 0.0000000000000000e+00  1.4143629080690746e-04 -7.6769151712895506e-03 0.0000000000000000e+00  -2.7635808675931928e-04 -5.7596992039582731e-03 0.0000000000000000e+00  1.3499971984725379e-04 -8.3748380612255480e-03 0.0000000000000000e+00  1.1724764702740308e-04 -1.0422825309177855e-02 0.0000000000000000e+00  1.2498670107565169e-04 -9.0643912769991421e-03 0.0000000000000000e+00  1.2057758568701677e-04 -9.7470988206955263e-03 0.0000000000000000e+00  -2.3730094750340892e-04 -5.0655854275446993e-03 0.0000000000000000e+00  1.4037144766474005e-04 -6.9774241217133636e-03 0.0000000000000000e+00  -2.3358205442134571e-04 -3.4289055584691927e-03 0.0000000000000000e+00  -2.6756831202376803e-04 -4.6005283039617902e-03 0.0000000000000000e+00  1.1834846683028776e-04 -1.1522363988978808e-02 0.0000000000000000e+00  -2.3179329308644931e-04 -3.0043300026970409e-03 0.0000000000000000e+00  8.3479059732289107e-05 -1.1084336640635772e-02 0.0000000000000000e+00  -1.4330079654910696e-04 -1.0559018566560173e-03 0.0000000000000000e+00  -1.3025976643604056e-04 -7.7366609713866766e-04 0.0000000000000000e+00  -2.8873600547152069e-04 -1.3268799258911147e-02 0.0000000000000000e+00  -2.9782573792533996e-04 -1.2860709905192193e-02 0.0000000000000000e+00  7.2978096413198339e-05 -1.0202020348788384e-02 0.0000000000000000e+00  7.6213750227542291e-05 -9.5240523794378820e-03 0.0000000000000000e+00  9.8048199910099400e-05 -8.1376142131931225e-03 0.0000000000000000e+00  8.1450537915473355e-05 -1.0866949910945388e-02 0.0000000000000000e+00  8.0492637129195432e-05 -8.8388312988367072e-03 0.0000000000000000e+00  1.0831407418546518e-04 -7.4376040309828478e-03 0.0000000000000000e+00  -2.3769096989597265e-04 -5.2965653801753925e-03 0.0000000000000000e+00  1.5886357520195096e-04 -1.5954799369627677e-03 0.0000000000000000e+00  -3.0062624920119437e-04 -1.2177246683496347e-02 0.0000000000000000e+00  -2.9469590046643659e-04 -1.1757483686645719e-02 0.0000000000000000e+00  1.6250003757170773e-04 -1.9574828277104631e-03 0.0000000000000000e+00  -2.65196543