<?xml version="1.0"?>
<VTKFile type="UnstructuredGrid"  version="0.1"  >
<UnstructuredGrid>
<Piece  NumberOfPoints="439" NumberOfCells="725">
<Points>
<DataArray  type="Float64"  NumberOfComponents="3"  format="ascii">0.5989165058114378 0.1690991755543894 0  0.600434276775524 0.1890757009317967 0  0.2489897949 0.21 0  0.2489897949 0.19 0  0.5996754210969873 0.1790874444057069 0  0.2496355385699469 0.2060260530378829 0  0.249959460510575 0.2020130349814059 0  0.2499594605105767 0.1979869650186357 0  0.24963553856995 0.1939739469621422 0  0.2539690547672121 0.2099685908571623 0  0.2589509114263074 0.2099353415970878 0  0.2639320636573019 0.209893459741435 0  0.2689108374286664 0.2098249889597006 0  0.2738872403997249 0.2097426800423304 0  0.2788644650780865 0.2096405684880459 0  0.2838378772371837 0.2095286973154905 0  0.2888078221531962 0.2093991873517785 0  0.2937775486187463 0.2092562892784574 0  0.2987449268242305 0.2091001438428957 0  0.3037132515045591 0.2089267022344457 0  0.3086809837863375 0.2087507504690543 0  0.3136441777987791 0.208555480301483 0  0.3186108872006763 0.2083506326399437 0  0.3235718587795182 0.2081365520334151 0  0.3285332881735243 0.2079096753771609 0  0.3334929454349544 0.2076754528431737 0  0.3384511947560633 0.2074288997242526 0  0.3434072484764835 0.2071775143191332 0  0.3483626447371109 0.2069159820501043 0  0.3533164754738655 0.2066475506673512 0  0.3582686924670724 0.2063724672318861 0  0.3632216709408093 0.2060869168742526 0  0.368174397136839 0.20580001897143 0  0.3731251399839056 0.2055036302756546 0  0.3780745975112382 0.2052035535036901 0  0.3830235395058602 0.2048967766558031 0  0.387971541167494 0.2045852525040059 0  0.3929183573989949 0.2042693085529375 0  0.3978656760036061 0.203946503070765 0  0.4028127693510468 0.2036231359847162 0  0.4077579427745233 0.2032935550107114 0  0.4127032710340293 0.2029595417820462 0  0.417648394838904 0.2026245396399668 0  0.4225921432960958 0.2022843596354998 0  0.4275366135004668 0.2019419692800382 0  0.4324796468056246 0.2015965695441466 0  0.4374232774957453 0.2012481527377797 0  0.4423657810149324 0.2008978009230095 0  0.4473079720172503 0.2005447557663384 0  0.4522501698298667 0.2001899116053892 0  0.4571921999353837 0.1998329646343267 0  0.4621335795595747 0.1994740845666386 0  0.4670750224991002 0.1991137500396473 0  0.472016303225021 0.1987516654431509 0  0.4769570729761879 0.1983880389050637 0  0.4818978141608995 0.1980232498970055 0  0.4868384281968868 0.1976570788554289 0  0.4917786450558317 0.1972897922791461 0  0.4967188258050614 0.1969216088468192 0  0.5016589010651518 0.1965523823827174 0  0.5065986613236052 0.1961823054920727 0  0.5115383764179584 0.1958115671025424 0  0.5164779892565882 0.195440055946684 0  0.5214173470592562 0.195067934245659 0  0.5263566801963049 0.1946953313854141 0  0.5312959060013855 0.1943221979285739 0  0.5362349669437594 0.193948649636773 0  0.5411738761595712 0.1935747859746891 0  0.5461126493243729 0.193200561542627 0  0.5510513565210142 0.1928260497984779 0  0.5559900142072276 0.1924514919342663 0  0.5609285307094838 0.192076643402801 0  0.5658670205600725 0.1917016987000747 0  0.5708053933403139 0.1913266629762094 0  0.5757436766373401 0.1909515282834384 0  0.5806819161434157 0.190576384772838 0  0.5856200746268319 0.1902012109166466 0  0.5905581753729304 0.1898260214018069 0  0.5954962472704373 0.1894508628327626 0  0.5939784878909984 0.1694744000415508 0  0.5890404445108961 0.1698496376950608 0  0.5841024015168953 0.1702248902963487 0  0.5791643565380922 0.1706001485292081 0  0.5742263184580185 0.1709753818152667 0  0.5692882998788035 0.1713505978609969 0  0.5643503167890135 0.1717257262201361 0  0.5594124190965853 0.1721007676481007 0  0.5544745248712643 0.1724757123789369 0  0.5495367274974795 0.1728504428524719 0  0.5445989985797702 0.1732250466513763 0  0.5396613015233307 0.1735993346935115 0  0.5347237690762779 0.1739732393470204 0  0.5297863495592882 0.174347065212818 0  0.5248489702728958 0.1747203167230056 0  0.5199118430872693 0.1750929404596728 0  0.5149748571616467 0.1754654170240154 0  0.5100378770934688 0.1758370255730209 0  0.5051012360861714 0.1762077635234802 0  0.500164776972632 0.1765782892912473 0  0.4952282999152774 0.1769476047785619 0  0.4902922581316214 0.177315739361949 0  0.4853564437212565 0.1776835840610951 0  0.4804205743987677 0.1780498185054477 0  0.4754852651804217 0.1784144715506978 0  0.4705502314183506 0.1787785495854889 0  0.4656152713592261 0.1791408813645329 0  0.460680910732488 0.1795010273860868 0  0.4557467065250385 0.1798607632777854 0  0.450812244583403 0.1802178715930674 0  0.4458789008380554 0.1805721631976915 0  0.4409459384836096 0.1809257791364331 0  0.4360130753372396 0.1812761033186671 0  0.4310802329700407 0.181624667595639 0  0.4261478853358842 0.1819703914934945 0  0.421215712795404 0.1823123941443803 0  0.4162846518078022 0.182652491582875 0  0.4113535046834257 0.1829886597352444 0  0.4064233657334381 0.1833215606176052 0  0.4014940229201697 0.1836504911845811 0  0.3965649276983487 0.1839749832720904 0  0.3916353254410561 0.1842960178207376 0  0.3867060644228972 0.1846118792244664 0  0.3817794171432653 0.1849241419315936 0  0.376851395197819 0.1852300962956865 0  0.3719260612269739 0.185530047392926 0  0.3669993109424298 0.1858251288128042 0  0.3620739365703058 0.1861125733850633 0  0.3571478879815146 0.1863951533765576 0  0.3522221588076777 0.1866698462066086 0  0.3473001503185358 0.1869391810963697 0  0.34237583216569 0.1871996161102508 0  0.3374555610890861 0.1874509624268546 0  0.332532050920754 0.1876945116780774 0  0.3276106719835228 0.187925240929746 0  0.3226907221175966 0.1881529490135207 0  0.317769926588459 0.1883661437192118 0  0.3128546090376007 0.1885697318877086 0  0.3079353266948266 0.1887628203987187 0  0.3030182931119119 0.1889407921512015 0  0.2981006365155669 0.1891099640417989 0  0.2931834211987648 0.1892638995848086 0  0.2882715851970314 0.1894075014866815 0  0.2833551136081804 0.1895359334027062 0  0.2784453048449387 0.1896500602775192 0  0.2735321242330796 0.189745664150787 0  0.2686249578121693 0.1898257967048576 0  0.2637150527633165 0.1898936140327682 0  0.2588056645915833 0.189941805234625 0  0.253897607166119 0.1899675913038411 0  0.5992959824849134 0.1740933105876941 0  0.6000548541596018 0.1840815739766263 0  0.2589785926059453 0.2005187644376928 0  0.5428866745554648 0.1834003356198674 0  0.5679496491810072 0.1814683884082303 0  0.2774669228643749 0.2004878490789997 0  0.5136156714868032 0.1855144267024215 0  0.5284303659265456 0.1843967243190182 0  0.2944878818458915 0.1985401639692358 0  0.5824388561835485 0.1799380424890026 0  0.3104045156174267 0.1986622891773866 0  0.3370151751069363 0.1983304341724882 0  0.4988011186978619 0.1866264075957894 0  0.3552400897675692 0.1965311543572058 0  0.483986772497073 0.1877305208640265 0  0.3706802352210773 0.1956516570092556 0  0.3898087236279553 0.1944471037638805 0  0.4687771971229518 0.1884911843467289 0  0.4540003051404519 0.1900279830296241 0  0.4042628797122639 0.1936000725640621 0  0.4194354993122464 0.1924735824042353 0  0.4385620827775517 0.1911210316209969 0  0.3202349071868191 0.1982959430608964 0  0.5581279470158297 0.1822351099337579 0  0.4279304790468185 0.1917325078364845 0  0.3467395971422149 0.1971477745915464 0  0.3813119958465397 0.1951370161426857 0  0.2860678695115301 0.1995264150858282 0  0.5906749871082528 0.178008179386374 0  0.2680121558295065 0.2015359686554907 0  0.4615705705249811 0.1917373847242569 0  0.4912025950753789 0.1895516637372145 0  0.5060183522228411 0.1884436197144413 0  0.3970691812513331 0.1917197314008778 0  0.476386684919846 0.19065057134784 0  0.520833932948366 0.1873287617287999 0  0.4467540237850299 0.1928087963399549 0  0.5356493185351829 0.1862090409818484 0  0.4118772169655339 0.1907318513171067 0  0.3625189708577362 0.193861669408664 0  0.3032895732556293 0.1967022178920708 0  0.574814322083312 0.1787158658304338 0  0.5499746536574405 0.1799782840460954 0  0.3283057494395517 0.2007956340785084 0  0.5484431506304794 0.1868366141220544 0  0.3300351241999356 0.1939918636320457 0  0.5373746102236536 0.1799256930548742 0  0.5225609479484987 0.1810461138856439 0  0.5077478013304885 0.1821619364512657 0  0.5774670371396591 0.1846674837390862 0  0.3013088878236386 0.202899214166905 0  0.4781238255567397 0.1843718009875719 0  0.4929353646251128 0.1832712719684394 0  0.3952781891677963 0.1979787735237568 0  0.3606802565233962 0.2001046971933462 0  0.4589382660581924 0.1857795853667506 0  0.4485042583190824 0.1865348194412434 0  0.4101013011388794 0.1969961815006046 0  0.2557712037543797 0.1960708945738835 0  0.2550272107962756 0.2034307136040072 0  0.4349338952939333 0.1951788019256787 0  0.3743455857740466 0.1916315210376858 0  0.3403968933255087 0.1933672519932697 0  0.2812116077902226 0.1956519680024178 0  0.2911585527845469 0.1954253512438895 0  0.4248217295475852 0.196066311059546 0  0.3499135274746154 0.1928642859527412 0  0.3844477998457304 0.1908244778416283 0  0.316464482276859 0.1946003117545194 0  0.5621607069126863 0.1857366258079791 0  0.5618625911630213 0.1780187244423701 0  0.316385964627677 0.2023194789634817 0  0.271023244482859 0.195777628651908 0  0.5873500266626736 0.1847683872242955 0  0.4342154412384921 0.1868909854087789 0  0.423923536856065 0.1880242763586722 0  0.3404701344598516 0.2021231830677793 0  0.2809745218145671 0.2043851972613668 0  0.2915423828639842 0.2041150547467589 0  0.3749829929683199 0.1999204581851262 0  0.3501624842163317 0.2019929678638386 0  0.3847785189968096 0.1999542981735424 0  0.2647727773473019 0.1961070889111607 0  0.5943135179747224 0.1835549292086738 0  0.5315213512354234 0.1798859411243184 0  0.5167079744809168 0.1810047354546331 0  0.3071443812306565 0.2031616690865336 0  0.5018952547186699 0.1821182377807366 0  0.5716982027055979 0.1855799052610081 0  0.4870833830885252 0.1832243941066101 0  0.4723158190322398 0.1843132787027129 0  0.3665310171595189 0.2002583963964
[...]
<PointData  Vectors="f_20-1"> 
<DataArray  type="Float64"  Name="f_20-1"  NumberOfComponents="3" format="ascii">-1.0834941885621949e-03 -2.0900824445610509e-02 0.0000000000000000e+00  4.3427677552412966e-04 -2.0924299068203350e-02 0.0000000000000000e+00  0.0000000000000000e+00 0.0000000000000000e+00 0.0000000000000000e+00  0.0000000000000000e+00 0.0000000000000000e+00 0.0000000000000000e+00  -3.2457890301254734e-04 -2.0912555594293118e-02 0.0000000000000000e+00  0.0000000000000000e+00 0.0000000000000000e+00 0.0000000000000000e+00  0.0000000000000000e+00 0.0000000000000000e+00 0.0000000000000000e+00  0.0000000000000000e+00 0.0000000000000000e+00 0.0000000000000000e+00  0.0000000000000000e+00 0.0000000000000000e+00 0.0000000000000000e+00  3.5454161582788399e-05 -3.1409142837702959e-05 0.0000000000000000e+00  7.3505115053158646e-05 -6.4658402912174453e-05 0.0000000000000000e+00  1.1085164040978544e-04 -1.0654025856502235e-04 0.0000000000000000e+00  1.4581970613641919e-04 -1.7501104029942182e-04 0.0000000000000000e+00  1.7841697156805461e-04 -2.5731995766959889e-04 0.0000000000000000e+00  2.1183594431117901e-04 -3.5943151195413502e-04 0.0000000000000000e+00  2.4144239778991342e-04 -4.7130268450946115e-04 0.0000000000000000e+00  2.6758160817960382e-04 -6.0081264822151731e-04 0.0000000000000000e+00  2.9350236809410555e-04 -7.4371072154266131e-04 0.0000000000000000e+00  3.1707486795978974e-04 -8.9985615710432053e-04 0.0000000000000000e+00  3.4159384265927884e-04 -1.0732977655542994e-03 0.0000000000000000e+00  3.6552041881938600e-04 -1.2492495309457342e-03 0.0000000000000000e+00  3.8490872564261652e-04 -1.4445196985169906e-03 0.0000000000000000e+00  4.0781242192130515e-04 -1.6493673600562727e-03 0.0000000000000000e+00  4.2497829514506893e-04 -1.8634479665849330e-03 0.0000000000000000e+00  4.4260198353261162e-04 -2.0903246228391294e-03 0.0000000000000000e+00  4.5845353933370269e-04 -2.3245471568263468e-03 0.0000000000000000e+00  4.7289715483493422e-04 -2.5711002757474130e-03 0.0000000000000000e+00  4.8514516962588482e-04 -2.8224856808667588e-03 0.0000000000000000e+00  4.9673572463487467e-04 -3.0840179498957156e-03 0.0000000000000000e+00  5.0676075577106268e-04 -3.3524493326487748e-03 0.0000000000000000e+00  5.1517204335967581e-04 -3.6275327681139129e-03 0.0000000000000000e+00  5.2434481147816282e-04 -3.9130831257473461e-03 0.0000000000000000e+00  5.3326530188941613e-04 -4.1999810285700441e-03 0.0000000000000000e+00  5.4020244332681942e-04 -4.4963697243454240e-03 0.0000000000000000e+00  5.4585426505055900e-04 -4.7964464963098927e-03 0.0000000000000000e+00  5.5099055404819568e-04 -5.1032233441969293e-03 0.0000000000000000e+00  5.5518651006022381e-04 -5.4147474959940576e-03 0.0000000000000000e+00  5.5819703593183202e-04 -5.7306914470625445e-03 0.0000000000000000e+00  5.6170993493545140e-04 -6.0534969292350372e-03 0.0000000000000000e+00  5.6499757674816564e-04 -6.3768640152837954e-03 0.0000000000000000e+00  5.6636529461257478e-04 -6.7064449892885441e-03 0.0000000000000000e+00  5.6788784849819141e-04 -7.0404582179537769e-03 0.0000000000000000e+00  5.6920594775220369e-04 -7.3754603600331928e-03 0.0000000000000000e+00  5.6914869933222874e-04 -7.7156403645002062e-03 0.0000000000000000e+00  5.6981319807498866e-04 -8.0580307199617836e-03 0.0000000000000000e+00  5.6904079759932007e-04 -8.4034304558533342e-03 0.0000000000000000e+00  5.6886578206805018e-04 -8.7518472622202716e-03 0.0000000000000000e+00  5.6756359559947760e-04 -9.1021990769904332e-03 0.0000000000000000e+00  5.6594889225364839e-04 -9.4552442336615725e-03 0.0000000000000000e+00  5.6434099922222231e-04 -9.8100883946107623e-03 0.0000000000000000e+00  5.6256539909724961e-04 -1.0167035365673255e-02 0.0000000000000000e+00  5.6013931765868134e-04 -1.0525915433361389e-02 0.0000000000000000e+00  5.5777655153370917e-04 -1.0886249960352631e-02 0.0000000000000000e+00  5.5525157182131381e-04 -1.1248334556849026e-02 0.0000000000000000e+00  5.5221561732110862e-04 -1.1611961094936289e-02 0.0000000000000000e+00  5.4915109638610613e-04 -1.1976750102994543e-02 0.0000000000000000e+00  5.4595942671068311e-04 -1.2342921144571081e-02 0.0000000000000000e+00  5.4237058002510718e-04 -1.2710207720853852e-02 0.0000000000000000e+00  5.3874562360034484e-04 -1.3078391153180777e-02 0.0000000000000000e+00  5.3501517806201057e-04 -1.3447617617282573e-02 0.0000000000000000e+00  5.3096973085585647e-04 -1.3817694507927249e-02 0.0000000000000000e+00  5.2687911957117442e-04 -1.4188432897457562e-02 0.0000000000000000e+00  5.2268625258461801e-04 -1.4559944053316020e-02 0.0000000000000000e+00  5.1823834961481927e-04 -1.4932065754340971e-02 0.0000000000000000e+00  5.1376578100482441e-04 -1.5304668614585869e-02 0.0000000000000000e+00  5.0918588044650021e-04 -1.5677802071426102e-02 0.0000000000000000e+00  5.0444111716074107e-04 -1.6051350363227013e-02 0.0000000000000000e+00  4.9954462733451516e-04 -1.6425214025310875e-02 0.0000000000000000e+00  4.9451208652013352e-04 -1.6799438457372962e-02 0.0000000000000000e+00  4.8941357752338118e-04 -1.7173950201522122e-02 0.0000000000000000e+00  4.8426555808205377e-04 -1.7548508065733655e-02 0.0000000000000000e+00  4.7897635469541257e-04 -1.7923356597199003e-02 0.0000000000000000e+00  4.7366049962455049e-04 -1.8298301299925310e-02 0.0000000000000000e+00  4.6822757420226520e-04 -1.8673337023790586e-02 0.0000000000000000e+00  4.6270516559409843e-04 -1.9048471716561547e-02 0.0000000000000000e+00  4.5713896603227940e-04 -1.9423615227161954e-02 0.0000000000000000e+00  4.5149174379784671e-04 -1.9798789083353377e-02 0.0000000000000000e+00  4.4578678424944386e-04 -2.0173978598193053e-02 0.0000000000000000e+00  4.4005297609671568e-04 -2.0549137167237410e-02 0.0000000000000000e+00  -1.0777064033849826e-03 -2.0525599958449228e-02 0.0000000000000000e+00  -1.0719440778619600e-03 -2.0150362304939232e-02 0.0000000000000000e+00  -1.0661813662240420e-03 -1.9775109703651327e-02 0.0000000000000000e+00  -1.0604206393805542e-03 -1.9399851470791925e-02 0.0000000000000000e+00  -1.0546530138328327e-03 -1.9024618184733316e-02 0.0000000000000000e+00  -1.0488658874272931e-03 -1.8649402139003173e-02 0.0000000000000000e+00  -1.0430432716045743e-03 -1.8274273779863900e-02 0.0000000000000000e+00  -1.0371352584035958e-03 -1.7899232351899354e-02 0.0000000000000000e+00  -1.0312237780938246e-03 -1.7524287621063027e-02 0.0000000000000000e+00  -1.0252154462239058e-03 -1.7149557147528062e-02 0.0000000000000000e+00  -1.0191386583340430e-03 -1.6774953348623726e-02 0.0000000000000000e+00  -1.0130300091741363e-03 -1.6400665306488506e-02 0.0000000000000000e+00  -1.0067567506181169e-03 -1.6026760652979543e-02 0.0000000000000000e+00  -1.0003705619749074e-03 -1.5652934787181945e-02 0.0000000000000000e+00  -9.9394414276703980e-04 -1.5279683276994376e-02 0.0000000000000000e+00  -9.8726562275498623e-04 -1.4907059540327245e-02 0.0000000000000000e+00  -9.8044584277521196e-04 -1.4534582975984631e-02 0.0000000000000000e+00  -9.7362020535376635e-04 -1.4162974426979126e-02 0.0000000000000000e+00  -9.6645550704630486e-04 -1.3792236476519750e-02 0.0000000000000000e+00  -9.5910891494862453e-04 -1.3421710708752713e-02 0.0000000000000000e+00  -9.5178026669458411e-04 -1.3052395221438060e-02 0.0000000000000000e+00  -9.4401634473168167e-04 -1.2684260638050952e-02 0.0000000000000000e+00  -9.3602504947775343e-04 -1.2316415938904920e-02 0.0000000000000000e+00  -9.2808866633697809e-04 -1.1950181494552290e-02 0.0000000000000000e+00  -9.1959217907499138e-04 -1.1585528449302183e-02 0.0000000000000000e+00  -9.1082023551769769e-04 -1.1221450414511037e-02 0.0000000000000000e+00  -9.0197458902944788e-04 -1.0859118635467051e-02 0.0000000000000000e+00  -8.9252951014693466e-04 -1.0498972613913214e-02 0.0000000000000000e+00  -8.8292801197182647e-04 -1.0139236722214645e-02 0.0000000000000000e+00  -8.7358424797779569e-04 -9.7821284069325772e-03 0.0000000000000000e+00  -8.6312228771621958e-04 -9.4278368023085670e-03 0.0000000000000000e+00  -8.5227893653695653e-04 -9.0742208635668752e-03 0.0000000000000000e+00  -8.4133637729013992e-04 -8.7238966813329242e-03 0.0000000000000000e+00  -8.3037303887242462e-04 -8.3753324043610525e-03 0.0000000000000000e+00  -8.1891496740244462e-04 -8.0296085065055204e-03 0.0000000000000000e+00  -8.0728180224413687e-04 -7.6876058556197011e-03 0.0000000000000000e+00  -7.9453708420339697e-04 -7.3475084171250099e-03 0.0000000000000000e+00  -7.8187850293371644e-04 -7.0113402647555851e-03 0.0000000000000000e+00  -7.6821174726143359e-04 -6.6784393823947352e-03 0.0000000000000000e+00  -7.5374885487817676e-04 -6.3495088154189401e-03 0.0000000000000000e+00  -7.3903837104140281e-04 -6.0250167279096486e-03 0.0000000000000000e+00  -7.2483492269871360e-04 -5.7039821792623617e-03 0.0000000000000000e+00  -7.1029023521098462e-04 -5.3881207755335850e-03 0.0000000000000000e+00  -6.9313180921707121e-04 -5.0758580684064315e-03 0.0000000000000000e+00  -6.7734804900681557e-04 -4.7699037043135275e-03 0.0000000000000000e+00  -6.5887631420333606e-04 -4.4699526070740387e-03 0.0000000000000000e+00  -6.4182089307870331e-04 -4.1748711871957989e-03 0.0000000000000000e+00  -6.2338955955556141e-04 -3.8874266149366782e-03 0.0000000000000000e+00  -6.0563244269618434e-04 -3.6048466234423469e-03 0.0000000000000000e+00  -5.8755591091136014e-04 -3.3301537933913988e-03 0.0000000000000000e+00  -5.6575869439517317e-04 -3.0608189036303128e-03 0.0000000000000000e+00  -5.4627114160199985e-04 -2.8003838897492192e-03 0.0000000000000000e+00  -5.2273651256741656e-04 -2.5490375731453880e-03 0.0000000000000000e+00  -5.0244097526116766e-04 -2.3054883219225547e-03 0.0000000000000000e+00  -4.8001420685238214e-04 -2.0747590702540363e-03 0.0000000000000000e+00  -4.5615836712059875e-04 -1.8470509864792625e-03 0.0000000000000000e+00  -4.3314819060022317e-04 -1.6338562807881344e-03 0.0000000000000000e+00  -4.0466003580058905e-04 -1.4302681122913437e-03 0.0000000000000000e+00  -3.8013667293153455e-04 -1.2371796012813289e-03 0.0000000000000000e+00  -3.5336455020781551e-04 -1.0592078487985440e-03 0.0000000000000000e+00  -3.2721544091438541e-04 -8.9003595820108397e-04 0.0000000000000000e+00  -3.0062505207805211e-04 -7.3610041519139380e-04 0.0000000000000000e+00  -2.6865534815603348e-04 -5.9249851331845415e-04 0.0000000000000000e+00  -2.4132123134908140e-04 -4.6406659729386862e-04 0.0000000000000000e+00  -2.0732428893284908e-04 -3.4993972248081743e-04 0.0000000000000000e+00  -1.7669919514472441e-04 -2.5433584921301697e-04 0.0000000000000000e+00  -1.4005991041667751e-04 -1.7420329514242222e-04 0.0000000000000000e+00  -1.0615925363101707e-04 -1.0638596723176237e-04 0.0000000000000000e+00  -7.1741719726053457e-05 -5.8194765375016355e-05 0.0000000000000000e+00  -3.5993439538829235e-05 -3.2408696158864861e-05 0.0000000000000000e+00  -7.0401751508650105e-04 -2.0906689412284202e-02 0.0000000000000000e+00  5.4854159602034666e-05 -2.0918426023346641e-02 0.0000000000000000e+00  5.1660742960484642e-06 -3.3624905147567110e-05 0.0000000000000000e+00  -2.5955982984292520e-04 -1.6599664380101582e-02 0.0000000000000000e+00  -2.9014029580898048e-04 -1.8502070172668382e-02 0.0000000000000000e+00  1.5530152572443681e-05 -3.0634286319292271e-04 0.0000000000000000e+00  -2.3391189009360413e-04 -1.4387915946670443e-02 0.0000000000000000e+00  -2.5063456719247442e-04 -1.5505618330078718e-02 0.0000000000000000e+00  -2.3013359873166950e-05 -7.5102687130279295e-04 0.0000000000000000e+00  -3.3922695494412083e-04 -1.9604937611332252e-02 0.0000000000000000e+00  -8.3240394988979305e-06 -1.3081694035111599e-03 0.0000000000000000e+00  1.4999565081293190e-05 -2.4990270709085308e-03 0.0000000000000000e+00  -2.1704756218395759e-04 -1.3275935053300839e-02 0.0000000000000000e+00  -4.1527803335083226e-05 -3.4688456428549558e-03 0.0000000000000000e+00  -1.9997664611955744e-04 -1.2171821785058398e-02 0.0000000000000000e+00  -5.7136169477724203e-05 -4.3625806861132647e-03 0.0000000000000000e+00  -7.9533882294335680e-05 -5.5528962362022738e-03 0.0000000000000000e+00  -2.0855792632165461e-04 -1.1050488078940511e-02 0.0000000000000000e+00  -1.5742654374477436e-04 -9.9720169702856801e-03 0.0000000000000000e+00  -9.0611689569144302e-05 -6.4975847868623043e-03 0.0000000000000000e+00  -1.1559243171049133e-04 -7.5264175958704169e-03 0.0000000000000000e+00  -1.3989508689949578e-04 -8.8647306836802820e-03 0.0000000000000000e+00  -1.2367838851201480e-05 -1.7129411537434793e-03 0.0000000000000000e+00  -2.7740709225532341e-04 -1.7756005851599838e-02 0.0000000000000000e+00  -1.3623564189493910e-04 -8.1163969843396373e-03 0.0000000000000000e+00  -2.6397484332512144e-05 -3.0033205878910517e-03 0.0000000000000000e+00  -6.0638719351016841e-05 -5.0140790367663602e-03 0.0000000000000000e+00  -4.6818067969683815e-07 -5.1512948478999116e-04 0.0000000000000000e+00  -4.4739406986657839e-04 -2.0236736548500420e-02 0.0000000000000000e+00  2.2839683643862748e-05 -1.3915699123832916e-04 0.0000000000000000e+00  -2.8697176466652572e-06 -1.0512978604543368e-02 0.0000000000000000e+00  -3.3679400966434860e-05 -1.2698699591594653e-02 0.0000000000000000e+00  -4.9339370357378008e-05 -1.3806743614370575e-02 0.0000000000000000e+00  -2.3478481734433060e-04 -6.0299052703187183e-03 0.0000000000000000e+00  -1.8172439643663615e-05 -1.1599791980965146e-02 0.0000000000000000e+00  -6.5175761679396054e-05 -1.4921601600018432e-02 0.0000000000000000e+00  1.2000659264269986e-05 -9.4415669888450928e-03 0.0000000000000000e+00  -8.1207291701863914e-05 -1.6041322346971469e-02 0.0000000000000000e+00  -2.5816621999775352e-04 -7.0177853540909548e-03 0.0000000000000000e+00  -1.7835527159908133e-04 -3.8879672625279434e-03 0.0000000000000000e+00  -8.2084406266782228e-05 -1.0474187791160265e-03 0.0000000000000000e+00  -4.6664938851096350e-04 -1.9033770840716498e-02 0.0000000000000000e+00  -4.8520226161560950e-04 -1.7150194427671298e-02 0.0000000000000000e+00  1.1297622486760472e-04 -2.0758874477322413e-03 0.0000000000000000e+00  2.5248580733276042e-05 -1.7003707447421884e-02 0.0000000000000000e+00  -1.9960288406323153e-04 -2.1678147985034696e-03 0.0000000000000000e+00  -5.4647500015774896e-04 -1.6199488609536766e-02 0.0000000000000000e+00  -5.2872015846660756e-04 -1.5079067778761857e-02 0.0000000000000000e+00  -5.1044965963388035e-04 -1.3963245213144038e-02 0.0000000000000000e+00  -4.4937290503867510e-06 -1.9207334596502538e-02 0.0000000000000000e+00  1.2778955868378026e-04 -9.7560416868870399e-04 0.0000000000000000e+00  -4.7159119967144332e-04 -1.1753380676832122e-02 0.0000000000000000e+00  -4.9146924815432068e-04 -1.2853909695966869e-02 0.0000000000000000e+00  1.6478249603326799e-04 -5.8960448118398146e-03 0.0000000000000000e+00  1.7348979098443857e-04 -3.7701211422489283e-03 0.0000000000000000e+00  -4.4461478752220643e-04 -1.0345596297648672e-02 0.0000000000000000e+00  -4.2832420359812388e-04 -9.5903622231572234e-03 0.0000000000000000e+00  1.5647735025754343e-04 -6.8786368349944846e-03 0.0000000000000000e+00  -1.5096225817339436e-05 -1.4942451845954573e-05 0.0000000000000000e+00  1.2474765335734555e-05 -1.1929395104158901e-05 0.0000000000000000e+00  1.3074764746443378e-04 -8.5949558384767078e-03 0.0000000000000000e+00  -2.9061583436335812e-04 -4.5947211981695359e-03 0.0000000000000000e+00  -2.2894326092168078e-04 -2.6795402007192483e-03 0.0000000000000000e+00  -8.8560328760732416e-05 -3.9482419163240293e-04 0.0000000000000000e+00  -1.1008595944243071e-04 -6.5628162103871155e-04 0.0000000000000000e+00  1.5119596559595196e-04 -7.8868967464083978e-03 0.0000000000000000e+00  -2.4864825829756701e-04 -3.1825062414465952e-03 0.0000000000000000e+00  -3.2101582653898999e-04 -5.2223143526075868e-03 0.0000000000000000e+00  -1.6788626149699762e-04 -1.5591468088506190e-03 0.0000000000000000e+00  5.7058073454462656e-06 -1.8045023451919960e-02 0.0000000000000000e+00  -5.7879653895569617e-04 -1.8057467918767660e-02 0.0000000000000000e+00  1.4646104436421222e-04 -1.5484767789874781e-03 0.0000000000000000e+00  -6.5468937903138025e-05 -1.9201568067582129e-04 0.0000000000000000e+00  4.8589022313310845e-05 -1.9954400878786794e-02 0.0000000000000000e+00  -4.5251540577876634e-04 -8.5741605464724063e-03 0.0000000000000000e+00  -4.0611355173355911e-04 -7.8514217352340099e-03 0.0000000000000000e+00  2.1418337649929903e-04 -2.6708669613129937e-03 0.0000000000000000e+00  1.0602913847367725e-04 -3.8904451989885157e-04 0.0000000000000000e+00  1.3467955011200260e-04 -6.6589696033657016e-04 0.0000000000000000e+00  2.1160035782661116e-04 -4.6143958597291710e-03 0.0000000000000000e+00  2.4083532644493102e-04 -3.1823734547918115e-03 0.0000000000000000e+00  2.5023016757982577e-04 -5.2210431450936557e-03 0.0000000000000000e+00  -4.1709198203308133e-05 -1.0188538747667621e-04 0.0000000000000000e+00  -1.1246391566953838e-05 -2.0486613150244418e-02 0.0000000000000000e+00  -5.7590981019101919e-04 -1.5758568780768839e-02 0.0000000000000000e+00  -5.5786944785589235e-04 -1.4639774450452253e-02 0.0000000000000000e+00  1.5205567039073206e-04 -1.1851343007215033e-03 0.0000000000000000e+00  -5.3917209325657161e-04 -1.3526272124349783e-02 0.0000000000000000e+00  3.7899132162845457e-05 -1.8766898126268014e-02 0.0000000000000000e+00  -5.1962660654886910e-04 -1.2420115798473056e-02 0.0000000000000000e+00  -4.9937849738649297e-04 -1.1326968188276536e-02 0.0000000000000000e+00  2.0083950676508868e-04 -4.1090584673944552e-03 0.0000000000000000e+00  -4.8807059461254112e-04 -1.0766068409543320e-02 0.0000000000000000e+00  1.9248514097539273e-04 -6.2784292732881867e-03 0.0000000000000000e+00  -4.5481104896472952e-04 -9.1731090589649428e-03 0.0000000000000000e+00  1.8494332562328262e-04 -7.2741498734884332e-03 0.0000000000000000e+00  -6.3577060013355344e-04 -1.9883316186536291e-02 0.0000000000000000e+00  6.3905399869385588e-05 -1.7439563171211470e-02 0.0000000000000000e+00  -2.1328113600183860e-04 -1.9012910317787849e-03 0.0000000000000000e+00  8.1818448150759458e-05 -2.0750115076938324e-04 0.0000000000000000e+00  4.3559914645505535e-05 -8.1712836908805081e-05 0.0000000000000000e+00  1.7556744967296920e-04 -1.0169599692324198e-02 0.0000000000000000e+00  -4.1792647896796218e-04 -7.3306223383300716e-03 0.0000000000000000e+00  1.6290136291612780e-04 -1.1251655341609006e-02 0.0000000000000000e+00  1.1326174492390248e-04 -1.4563677686930987e-02 0.0000000000000000e+00  1.4220576855874408e-04 -1.2345642233843331e-02 0.0000000000000000e+00  1.2799889865790540e-04 -1.3450890492245200e-02 0.0000000000000000e+00  -3.4882850818056222e-04 -6.3554528877125061e-03 0.0000000000000000e+00  1.7539310340012546e-04 -9.1116237731715625e-03 0.0000000000000000e+00  -3.1412521201340125e-04 -4.1599667054969935e-03 0.0000000000000000e+00  -3.8091076589715357e-04 -5.7173093577550073e-03 0.0000000000000000e+00  9.5277565724596850e-05 -1.6405847466832386e-02 0.0000000000000000e+00  -3.0452236092336779e-04 -3.6134403292857188e-03 0.0000000000000000e+00  4.5487679207357627e-05 -1.5667158802173391e-02 0.0000000000000000e+00  -1.7096523584141226e-04 -1.2164710517435370e-03 0.0000000000000000e+00  -1.5322691610384948e-04 -8.8444873516391295e-04 0.0000000000000000e+00  -6.3906363703504704e-04 -1.9364417971756115e-02 0.0000000000000000e+00  -6.4344606771205460e-04 -1.8668258270331747e-02 0.0000000000000000e+00  4.3747149056511261e-05 -1.4196943152138066e-02 0.0000000000000000e+00  5.8825333191020747e-05 -1.3086311937063305e-02 0.0000000000000000e+00  1.0694761431229432e-04 -1.0880014094677459e-02 0.0000000000000000e+00  4.6291674997443974e-05 -1.5302723172891858e-02 0.0000000000000000e+00  7.3523916267151379e-05 -1.1983976289667993e-02 0.0000000000000000e+00  1.2632258794836960e-04 -9.8039641668858091e-03 0.0000000000000000e+00  -3.5372008450595580e-04 -6.6768136668189995e-03 0.0000000000000000e+00  1.9155465589948365e-04 -1.8636680526955866e-03 0.0000000000000000e+00  -6.2917276081618002e-04 -1.7504908861569666e-02 0.0000000000000000e+00  -6.0722023228301986e-04 -1.6793276353220959e-02 0.0000000000000000e+00  1.9729087930689913e-04 -2.3049206822191820e-03 0.0000000000000000e+00  -4.