<?xml version="1.0"?>
<VTKFile type="UnstructuredGrid"  version="0.1"  >
<UnstructuredGrid>
<Piece  NumberOfPoints="439" NumberOfCells="725">
<Points>
<DataArray  type="Float64"  NumberOfComponents="3"  format="ascii">0.6000024864456454 0.1895221515601964 0  0.5999987608041667 0.2095221521650157 0  0.2489897949 0.21 0  0.2489897949 0.19 0  0.6000006234723095 0.1995221515800072 0  0.2496355385699469 0.2060260530378829 0  0.249959460510575 0.2020130349814059 0  0.2499594605105767 0.1979869650186357 0  0.24963553856995 0.1939739469621422 0  0.2539402119776925 0.2099931818583808 0  0.2588901475684318 0.2099860643086307 0  0.2638395314644975 0.2099775274972856 0  0.2687879702326709 0.2099654160714469 0  0.2737355260838576 0.2099518467105446 0  0.278682679070192 0.2099361120902018 0  0.2836290802172235 0.2099197413540847 0  0.2885747644425619 0.2099020394360106 0  0.2935200487846487 0.2098835959369652 0  0.298464876841426 0.2098646511797182 0  0.3034093655173999 0.209845331526495 0  0.3083535812148848 0.2098260574646571 0  0.3132973339478016 0.2098066941496941 0  0.3182407847815846 0.2097875433157889 0  0.3231840528147606 0.2097686500108835 0  0.3281270432608412 0.2097503222023807 0  0.333069865231666 0.2097323588926327 0  0.3380125200782956 0.2097151437249525 0  0.342955155397149 0.209698399850054 0  0.3478976361407454 0.2096824598970179 0  0.3528400927727626 0.2096671659096315 0  0.3577825641987963 0.2096526010504591 0  0.3627247818558893 0.2096392145009557 0  0.3676669362106453 0.2096260355509094 0  0.3726091797619259 0.2096140323807836 0  0.3775515131713828 0.2096025896541883 0  0.3824938125613235 0.2095920734146469 0  0.3874361708664009 0.2095822637246674 0  0.3923786431026608 0.2095731582315914 0  0.3973209685005729 0.2095651460311398 0  0.4022632957821329 0.2095572476328561 0  0.4072058816707919 0.2095503848643597 0  0.4121484090091599 0.2095443018389857 0  0.4170909533284698 0.2095384030125683 0  0.4220337094711846 0.2095334201894861 0  0.4269763268135789 0.2095288441997956 0  0.4319191904785061 0.209524819945877 0  0.436861942162915 0.2095213485577276 0  0.4418048976624817 0.2095182375258782 0  0.4467479138031282 0.2095156234248192 0  0.4516909336824613 0.2095133425956155 0  0.4566339932720264 0.2095114460120925 0  0.4615771796896743 0.2095099012197378 0  0.4665203657139992 0.2095086180880597 0  0.4714635951335557 0.2095076452559576 0  0.4764069253974861 0.2095069413587351 0  0.4813502737849367 0.2095064353229292 0  0.4862936598446264 0.209506161616004 0  0.4912371222437544 0.2095060687159097 0  0.4961806029981006 0.2095061166765848 0  0.5011241150000467 0.2095063265569539 0  0.5060676839216085 0.2095066613266913 0  0.5110112697378519 0.2095070894273091 0  0.5159548817753863 0.2095076253966179 0  0.5208985349875591 0.2095082401035513 0  0.5258421987442393 0.2095089146473934 0  0.5307858837159205 0.2095096533894485 0  0.5357295942390228 0.2095104381981083 0  0.5406733257010856 0.2095112564087376 0  0.5456170746590774 0.2095121101264976 0  0.5505608326123574 0.2095129897301236 0  0.5555045967198137 0.2095138726030046 0  0.5604483752222764 0.2095147796340947 0  0.565392156495646 0.2095156929979664 0  0.5703359470777202 0.2095166115466376 0  0.5752797434967176 0.2095175356450019 0  0.5802235427033601 0.2095184595929746 0  0.5851673454069634 0.2095193840320968 0  0.5901111497679191 0.2095203081998884 0  0.5950549550813838 0.2095212304156711 0  0.5950586806527186 0.1895212299595203 0  0.5901148745065727 0.1895203073449781 0  0.5851710676244607 0.1895193833859048 0  0.5802272589814371 0.1895184584029074 0  0.5752834480826391 0.1895175342810322 0  0.5703396338710905 0.1895166097282302 0  0.5653958139137603 0.1895156906096433 0  0.5604519853006998 0.1895147773160871 0  0.5555081531611066 0.189513869819426 0  0.5505643088507057 0.1895129808715112 0  0.5456204544991776 0.1895121021770829 0  0.5406765925368805 0.1895112529526575 0  0.5357327088875654 0.1895104438046478 0  0.5307888089304348 0.1895096433410404 0  0.5258448986598141 0.1895089064911992 0  0.5209009524069629 0.1895082475820907 0  0.5159569833663368 0.1895076077049412 0  0.5110130075370024 0.1895070795357984 0  0.5060689791134871 0.1895066748247056 0  0.5011249189812935 0.1895063012301725 0  0.4961808557845959 0.1895061036193791 0  0.4912367205335839 0.1895060918720116 0  0.4862925435455189 0.1895061269470441 0  0.4813483709677546 0.1895064194998287 0  0.4764041012443966 0.1895069812944304 0  0.4714597803998361 0.1895076432177597 0  0.466515443828271 0.1895086029852411 0  0.4615710006901559 0.1895099543362714 0  0.4566265265614322 0.1895113770692789 0  0.4516821008083622 0.1895132713158931 0  0.4467374760253555 0.1895156812910227 0  0.4417927821485625 0.1895182149182108 0  0.4368480762830211 0.1895213522020231 0  0.4319033720653171 0.1895248122023989 0  0.4269585876177431 0.1895287909896802 0  0.4220137826701058 0.1895334366151146 0  0.4170687937694817 0.1895384305051981 0  0.4121238297948586 0.1895441229123085 0  0.4071787128224343 0.189550382021693 0  0.4022334888225623 0.1895573219554541 0  0.3972882559783164 0.1895649959810222 0  0.3923431338013247 0.189573245396044 0  0.3873979857082608 0.1895823164643734 0  0.3824524894904273 0.1895919590578777 0  0.3775072474660063 0.1896025107715059 0  0.372561705332502 0.1896139211518177 0  0.3676164084390171 0.1896259913667568 0  0.3626710014277576 0.1896390098952508 0  0.3577257664934023 0.1896526414033388 0  0.3527805790256844 0.1896671624589626 0  0.3478351327927069 0.1896822882514913 0  0.3428900403091648 0.1896982164029581 0  0.3379448008311698 0.18971495556688 0  0.3329999365301359 0.1897322549432159 0  0.3280551589397993 0.1897503191653456 0  0.3231104663216187 0.1897685220150139 0  0.3181660640777538 0.1897874127899675 0  0.3132218270866848 0.1898065500864328 0  0.3082779017032235 0.1898258797038577 0  0.3033343048607978 0.1898452176042929 0  0.2983910549609632 0.1898644959943027 0  0.2934481961690412 0.1898834244883935 0  0.2885059431748709 0.1899020279933974 0  0.2835639128582674 0.1899196646732333 0  0.2786228783480152 0.1899365611996853 0  0.2736821361244332 0.1899515823852855 0  0.2687426549835346 0.1899651204504485 0  0.2638033704036107 0.1899771975847859 0  0.2588647205983515 0.1899866285354865 0  0.2539269006510212 0.1899928585183328 0  0.6000015546047772 0.1945221515744006 0  0.5999996924609383 0.2045221518425672 0  0.2589741516807148 0.2005430788397593 0  0.5431468660206572 0.1995116374379891 0  0.5682404194239592 0.199486668961209 0  0.2774535643885664 0.2007366133346394 0  0.5138502315736847 0.199409599542489 0  0.5286816460720214 0.1994115947324408 0  0.2945085774248687 0.199171685062692 0  0.5827787913550792 0.1990619143693717 0  0.3104130190078514 0.1997882232101552 0  0.3370035086478245 0.2005470566505685 0  0.4990188142584574 0.1994083683844396 0  0.3552821690861855 0.1996588892462854 0  0.4841873950748929 0.1994083201182655 0  0.3707380374046895 0.1996314375243144 0  0.3898888752550205 0.1995767596978638 0  0.4689863119691494 0.1990493750428605 0  0.4541583877939579 0.1995118905041128 0  0.4043542932282024 0.1996510171357405 0  0.4195517640059107 0.1995350251957176 0  0.4387026376227939 0.1995052126414795 0  0.320247659516923 0.1997881017539822 0  0.5584059810161994 0.1995054961743535 0  0.4280672128107886 0.1993761022734685 0  0.346767056933403 0.1998360399740027 0  0.3813736118127732 0.1997443848299504 0  0.2860684856169368 0.1999535820956534 0  0.591123331248301 0.1977654113656022 0  0.267992633039858 0.2016455043894196 0  0.4615748047129339 0.2017598411285735 0  0.4912369830463971 0.2017562077977463 0  0.5060681993857451 0.2017568702179492 0  0.3973009350065651 0.1973137139900155 0  0.4764058450948859 0.2017569908083039 0  0.520899481491082 0.2017585044207317 0  0.4467439026459708 0.2017654568083058 0  0.5357308130248385 0.2017607463040088 0  0.4121332528168839 0.1972929981093286 0  0.3626919065898546 0.197387658309256 0  0.3033636385463674 0.1975952299006885 0  0.5752820103658474 0.1972671653643314 0  0.550460977783078 0.1966414131333608 0  0.3282034459543703 0.2026208428262415 0  0.5484178756439959 0.2033528977348828 0  0.3302216136843936 0.195901564673591 0  0.5379223202362051 0.1956359310958067 0  0.5230907747426516 0.1956336249442988 0  0.5082591507257007 0.1956318829347696 0  0.5774714386970321 0.2033927585605659 0  0.3011956046839489 0.2037290646214662 0  0.4785955507776724 0.1956315988342295 0  0.4934274192991116 0.1956310524201044 0  0.3951205700592016 0.2034425625755412 0  0.3605179112111266 0.2035189215494393 0  0.459382251251069 0.1956353457696013 0  0.4489312697082726 0.1956392651283834 0  0.4099504323527786 0.2034209252663547 0  0.255783683878634 0.1960809725576365 0  0.2550168272794049 0.2034386726316071 0  0.4348066437762715 0.2032958968839066 0  0.3746281791838654 0.1958344132775403 0  0.3406133229388124 0.1957520565113135 0  0.2812881499593348 0.195975842626646 0  0.2912553104330018 0.1959743818609913 0  0.4246749652078335 0.203483540540314 0  0.3501506181144409 0.1957211211025766 0  0.3847615162308159 0.1956332888583003 0  0.3166183982073189 0.1959527281515768 0  0.5621549423938809 0.203296727592982 0  0.5624427233486344 0.1955913231755241 0  0.3162542407773399 0.2036628146578011 0  0.2710788132823717 0.1959308902187249 0  0.5873011829271486 0.2042425700360771 0  0.4346652637885022 0.1949874426191353 0  0.4243263705771957 0.1954062527714517 0  0.3402723323074844 0.2045006908100931 0  0.2808830640695942 0.2047046535102279 0  0.2914244889816291 0.2046730703099699 0  0.3747824622642955 0.2041428192102559 0  0.3499380348726638 0.2048507011701074 0  0.3845393164040286 0.2047625684562007 0  0.2648077366590826 0.1961863455107721 0  0.5943246353174498 0.2035626359351834 0  0.5320985324907463 0.1951543130231409 0  0.5172669475479046 0.1951521993908361 0  0.3070087819716786 0.2041781133699755 0  0.5024352625625417 0.195150774143862 0  0.5716601290066825 0.2038636562039338 0  0.4876034463095948 0.1951504295765699 0  0.4728150662703915 0.1951474027806909 0  0.3663420665766568 
[...]
<PointData  Vectors="f_20-1"> 
<DataArray  type="Float64"  Name="f_20-1"  NumberOfComponents="3" format="ascii">2.4864456453740738e-06 -4.7784843980363818e-04 0.0000000000000000e+00  -1.2391958332784076e-06 -4.7784783498427686e-04 0.0000000000000000e+00  0.0000000000000000e+00 0.0000000000000000e+00 0.0000000000000000e+00  0.0000000000000000e+00 0.0000000000000000e+00 0.0000000000000000e+00  6.2347230961149201e-07 -4.7784841999281452e-04 0.0000000000000000e+00  0.0000000000000000e+00 0.0000000000000000e+00 0.0000000000000000e+00  0.0000000000000000e+00 0.0000000000000000e+00 0.0000000000000000e+00  0.0000000000000000e+00 0.0000000000000000e+00 0.0000000000000000e+00  0.0000000000000000e+00 0.0000000000000000e+00 0.0000000000000000e+00  6.6113720631422244e-06 -6.8181416192393574e-06 0.0000000000000000e+00  1.2741257177591372e-05 -1.3935691369280767e-05 0.0000000000000000e+00  1.8319447605409201e-05 -2.2472502714408002e-05 0.0000000000000000e+00  2.2952510140871335e-05 -3.4583928553031900e-05 0.0000000000000000e+00  2.6702655700694343e-05 -4.8153289455385968e-05 0.0000000000000000e+00  3.0049936416691353e-05 -6.3887909798233949e-05 0.0000000000000000e+00  3.2645377829795489e-05 -8.0258645915308994e-05 0.0000000000000000e+00  3.4523897545271349e-05 -9.7960563989422754e-05 0.0000000000000000e+00  3.6002533996497315e-05 -1.1640406303481392e-04 0.0000000000000000e+00  3.7024885155235082e-05 -1.3534882028176084e-04 0.0000000000000000e+00  3.7707855500196979e-05 -1.5466847350502770e-04 0.0000000000000000e+00  3.8117847366655455e-05 -1.7394253534286570e-04 0.0000000000000000e+00  3.8064874665146077e-05 -1.9330585030585823e-04 0.0000000000000000e+00  3.7710002829628502e-05 -2.1245668421114336e-04 0.0000000000000000e+00  3.7172330387425937e-05 -2.3134998911644112e-04 0.0000000000000000e+00  3.6357070849530274e-05 -2.4967779761924129e-04 0.0000000000000000e+00  3.5373336045236066e-05 -2.6764110736731236e-04 0.0000000000000000e+00  3.4222477067245272e-05 -2.8485627504747541e-04 0.0000000000000000e+00  3.3052090291396309e-05 -3.0160014994599931e-04 0.0000000000000000e+00  3.1727128269405957e-05 -3.1754010298209973e-04 0.0000000000000000e+00  3.0378054668166037e-05 -3.3283409036847481e-04 0.0000000000000000e+00  2.9043775083520999e-05 -3.4739894954089281e-04 0.0000000000000000e+00  2.7455726558184388e-05 -3.6078549904425744e-04 0.0000000000000000e+00  2.5804375695803344e-05 -3.7396444909060998e-04 0.0000000000000000e+00  2.4242221347135353e-05 -3.8596761921636582e-04 0.0000000000000000e+00  2.2769925195132815e-05 -3.9741034581170398e-04 0.0000000000000000e+00  2.1263609511490703e-05 -4.0792658535308222e-04 0.0000000000000000e+00  1.9816208967148769e-05 -4.1773627533259715e-04 0.0000000000000000e+00  1.8482739597686361e-05 -4.2684176840860629e-04 0.0000000000000000e+00  1.7002431902318622e-05 -4.3485396886021029e-04 0.0000000000000000e+00  1.5524007834359286e-05 -4.4275236714387024e-04 0.0000000000000000e+00  1.4304190881206663e-05 -4.4961513564027375e-04 0.0000000000000000e+00  1.3025823628778880e-05 -4.5569816101431352e-04 0.0000000000000000e+00  1.1764437317990326e-05 -4.6159698743164897e-04 0.0000000000000000e+00  1.0714874420982375e-05 -4.6657981051384208e-04 0.0000000000000000e+00  9.5265111870485742e-06 -4.7115580020443690e-04 0.0000000000000000e+00  8.5844704807986168e-06 -4.7518005412294746e-04 0.0000000000000000e+00  7.5304492376864106e-06 -4.7865144227237445e-04 0.0000000000000000e+00  6.6802431487931035e-06 -4.8176247412179141e-04 0.0000000000000000e+00  5.8906781315125064e-06 -4.8437657518076138e-04 0.0000000000000000e+00  5.1048518168168334e-06 -4.8665740438453642e-04 0.0000000000000000e+00  4.3587357399906267e-06 -4.8855398790753396e-04 0.0000000000000000e+00  3.7394477583539081e-06 -4.9009878026222474e-04 0.0000000000000000e+00  3.1197664327417111e-06 -4.9138191194028884e-04 0.0000000000000000e+00  2.5434803559077723e-06 -4.9235474404241370e-04 0.0000000000000000e+00  2.0680386192997835e-06 -4.9305864126490467e-04 0.0000000000000000e+00  1.6107204233387401e-06 -4.9356467707081710e-04 0.0000000000000000e+00  1.1910744504076551e-06 -4.9383838399598055e-04 0.0000000000000000e+00  8.4776794781532992e-07 -4.9393128409028978e-04 0.0000000000000000e+00  5.2281663952312723e-07 -4.9388332341520659e-04 0.0000000000000000e+00  2.2911295707117522e-07 -4.9367344304607577e-04 0.0000000000000000e+00  -7.6711408315430618e-09 -4.9333867330865499e-04 0.0000000000000000e+00  -2.2756053535196624e-07 -4.9291057269086895e-04 0.0000000000000000e+00  -4.2122861730596480e-07 -4.9237460338209013e-04 0.0000000000000000e+00  -5.7372208234634665e-07 -4.9175989644864983e-04 0.0000000000000000e+00  -7.1567106081604111e-07 -4.9108535260662569e-04 0.0000000000000000e+00  -8.3640501857322271e-07 -4.9034661055149143e-04 0.0000000000000000e+00  -9.3158757593717074e-07 -4.8956180189168924e-04 0.0000000000000000e+00  -1.0058311510474584e-06 -4.8874359126243835e-04 0.0000000000000000e+00  -1.0625787754987179e-06 -4.8788987350242591e-04 0.0000000000000000e+00  -1.1103311333565788e-06 -4.8701026987638222e-04 0.0000000000000000e+00  -1.1519293319679909e-06 -4.8612739699542171e-04 0.0000000000000000e+00  -1.1791325120578024e-06 -4.8522036590528157e-04 0.0000000000000000e+00  -1.2035648020731091e-06 -4.8430700203363911e-04 0.0000000000000000e+00  -1.2186883914368795e-06 -4.8338845336237717e-04 0.0000000000000000e+00  -1.2279750282513202e-06 -4.8246435499806441e-04 0.0000000000000000e+00  -1.2344740233720261e-06 -4.8154040702534873e-04 0.0000000000000000e+00  -1.2374760706839696e-06 -4.8061596790316765e-04 0.0000000000000000e+00  -1.2388207617781937e-06 -4.7969180011159034e-04 0.0000000000000000e+00  -1.2392129565996291e-06 -4.7876958432890398e-04 0.0000000000000000e+00  2.4863583353532438e-06 -4.7877004047972694e-04 0.0000000000000000e+00  2.4859178147492720e-06 -4.7969265502188860e-04 0.0000000000000000e+00  2.4847413413427892e-06 -4.8061661409521804e-04 0.0000000000000000e+00  2.4818039644260276e-06 -4.8154159709262929e-04 0.0000000000000000e+00  2.4766107876762033e-06 -4.8246571896776343e-04 0.0000000000000000e+00  2.4681048597313758e-06 -4.8339027176981362e-04 0.0000000000000000e+00  2.4538531422377338e-06 -4.8430939035674317e-04 0.0000000000000000e+00  2.4309457109401832e-06 -4.8522268391293724e-04 0.0000000000000000e+00  2.4045117484736958e-06 -4.8613018057402517e-04 0.0000000000000000e+00  2.3659070022505492e-06 -4.8701912848877327e-04 0.0000000000000000e+00  2.3172610733276094e-06 -4.8789782291707080e-04 0.0000000000000000e+00  2.2610043755507187e-06 -4.8874704734246598e-04 0.0000000000000000e+00  2.1830606692723951e-06 -4.8955619535220212e-04 0.0000000000000000e+00  2.0888091716887629e-06 -4.9035665895964234e-04 0.0000000000000000e+00  1.9842441512732505e-06 -4.9109350880084538e-04 0.0000000000000000e+00  1.8436969384731932e-06 -4.9175241790930181e-04 0.0000000000000000e+00  1.6803619149381995e-06 -4.9239229505875924e-04 0.0000000000000000e+00  1.5102381798549953e-06 -4.9292046420157463e-04 0.0000000000000000e+00  1.2875202693807393e-06 -4.9332517529442836e-04 0.0000000000000000e+00  1.0330937128931363e-06 -4.9369876982751650e-04 0.0000000000000000e+00  7.7560262388483901e-07 -4.9389638062088265e-04 0.0000000000000000e+00  4.4605723081100178e-07 -4.9390812798837396e-04 0.0000000000000000e+00  7.4774784571687329e-08 -4.9387305295587301e-04 0.0000000000000000e+00  -2.9209735004952734e-07 -4.9358050017131612e-04 0.0000000000000000e+00  -7.5611510003240641e-07 -4.9301870556955332e-04 0.0000000000000000e+00  -1.2712540322323493e-06 -4.9235678224030107e-04 0.0000000000000000e+00  -1.8021199845301272e-06 -4.9139701475893753e-04 0.0000000000000000e+00  -2.4395524790001525e-06 -4.9004566372862505e-04 0.0000000000000000e+00  -3.1079755781604694e-06 -4.8862293072113175e-04 0.0000000000000000e+00  -3.7280230186345458e-06 -4.8672868410690336e-04 0.0000000000000000e+00  -4.5471004160775237e-06 -4.8431870897732473e-04 0.0000000000000000e+00  -5.4352715840404108e-06 -4.8178508178921400e-04 0.0000000000000000e+00  -6.3354315086290235e-06 -4.7864779797692029e-04 0.0000000000000000e+00  -7.2339435960405954e-06 -4.7518779760114926e-04 0.0000000000000000e+00  -8.2126855435374974e-06 -4.7120901031983531e-04 0.0000000000000000e+00  -9.2119275423748587e-06 -4.6656338488540840e-04 0.0000000000000000e+00  -1.0395122523876374e-05 -4.6156949480192865e-04 0.0000000000000000e+00  -1.1553391500850689e-05 -4.5587708769145180e-04 0.0000000000000000e+00  -1.2864658265173916e-05 -4.4961797830702006e-04 0.0000000000000000e+00  -1.4282952485434249e-05 -4.4267804454596496e-04 0.0000000000000000e+00  -1.5710091073780201e-05 -4.3500401897781781e-04 0.0000000000000000e+00  -1.7026562430074132e-05 -4.2675460395598353e-04 0.0000000000000000e+00  -1.8368949847338164e-05 -4.1768353562657865e-04 0.0000000000000000e+00  -2.0059462055122708e-05 -4.0804094212225844e-04 0.0000000000000000e+00  -2.1495780819454971e-05 -3.9748922849412602e-04 0.0000000000000000e+00  -2.3232208675206252e-05 -3.8607884818227494e-04 0.0000000000000000e+00  -2.4723396491456695e-05 -3.7400863324321958e-04 0.0000000000000000e+00  -2.6324702103784366e-05 -3.6099010474924183e-04 0.0000000000000000e+00  -2.7753930808497662e-05 -3.4735859666117986e-04 0.0000000000000000e+00  -2.9135692904607174e-05 -3.3283754103738113e-04 0.0000000000000000e+00  -3.0776220224119029e-05 -3.1771174850873756e-04 0.0000000000000000e+00  -3.2062998127182711e-05 -3.0178359704190492e-04 0.0000000000000000e+00  -3.3496770483805255e-05 -2.8504443311996630e-04 0.0000000000000000e+00  -3.4555365879274744e-05 -2.6774505678412385e-04 0.0000000000000000e+00  -3.5527250575893226e-05 -2.4968083465442669e-04 0.0000000000000000e+00  -3.6414163098397818e-05 -2.3147798498605909e-04 0.0000000000000000e+00  -3.7010701305367735e-05 -2.1258721003252601e-04 0.0000000000000000e+00  -3.7441986716336936e-05 -1.9344991356716861e-04 0.0000000000000000e+00  -3.7561664534618260e-05 -1.7412029614233051e-04 0.0000000000000000e+00  -3.7352801321910516e-05 -1.5478239570711059e-04 0.0000000000000000e+00  -3.6796995518035159e-05 -1.3550400569728327e-04 0.0000000000000000e+00  -3.5850081801658943e-05 -1.1657551160653066e-04 0.0000000000000000e+00  -3.4297370316529828e-05 -9.7972006602571181e-05 0.0000000000000000e+00  -3.2521981262070855e-05 -8.0335326766687719e-05 0.0000000000000000e+00  -2.9750785856352514e-05 -6.3438800314737683e-05 0.0000000000000000e+00  -2.6687303791096602e-05 -4.8417614714495256e-05 0.0000000000000000e+00  -2.2362739051425700e-05 -3.4879549551496272e-05 0.0000000000000000e+00  -1.7841613336889704e-05 -2.2802415214093989e-05 0.0000000000000000e+00  -1.2685712957810311e-05 -1.3371464513535344e-05 0.0000000000000000e+00  -6.6999546366896394e-06 -7.1414816672583635e-06 0.0000000000000000e+00  1.5546047772876613e-06 -4.7784842557768888e-04 0.0000000000000000e+00  -3.0753906160604947e-07 -4.7784815740566279e-04 0.0000000000000000e+00  7.2514906552391831e-07 -9.3105030809894939e-06 0.0000000000000000e+00  6.3163534949829596e-07 -4.8836256197987420e-04 0.0000000000000000e+00  6.2994714296182995e-07 -4.8378961968970855e-04 0.0000000000000000e+00  2.1716767640535870e-06 -5.7578607553208484e-05 0.0000000000000000e+00  6.4819678766452888e-07 -4.9274310660284907e-04 0.0000000000000000e+00  6.4557828323154462e-07 -4.9074791665613385e-04 0.0000000000000000e+00  -2.3177808959509485e-06 -1.1950577784657575e-04 0.0000000000000000e+00  7.0821658647327826e-07 -4.8106573096321501e-04 0.0000000000000000e+00  1.7935092579408023e-07 -1.8223537074257219e-04 0.0000000000000000e+00  3.3331059693684160e-06 -2.8240459282815488e-04 0.0000000000000000e+00  6.4799841146928054e-07 -4.9397426465058237e-04 0.0000000000000000e+00  5.5151528117762756e-07 -3.4111075377542380e-04 0.0000000000000000e+00  6.4593170043709085e-07 -4.9402253081938454e-04 0.0000000000000000e+00  6.6601413436582779e-07 -3.8280017105448235e-04 0.0000000000000000e+00  6.1774477095811657e-07 -4.2324030221898244e-04 0.0000000000000000e+00  5.5691987594028504e-07 -4.9229738280888338e-04 0.0000000000000000e+00  6.5610976121507331e-07 -4.8810949579701122e-04 0.0000000000000000e+00  8.0182636929236722e-07 -4.4664021518390178e-04 0.0000000000000000e+00  6.7226195375441387e-07 -4.6497480438806288e-04 0.0000000000000000e+00  6.5975834274284810e-07 -4.8054966319774388e-04 0.0000000000000000e+00  3.8449125274507079e-07 -2.2078246065768196e-04 0.0000000000000000e+00  6.2690811435379569e-07 -4.8561961100422732e-04 0.0000000000000000e+00  4.9812207527698324e-07 -4.7280254735556010e-04 0.0000000000000000e+00  1.0623068555812007e-06 -3.1505520543481788e-04 0.0000000000000000e+00  9.7724688238442374e-07 -4.0671034950157776e-04 0.0000000000000000e+00  1.4792472696088173e-07 -8.7962474964771326e-05 0.0000000000000000e+00  9.5007018152918707e-07 -4.7950456927215140e-04 0.0000000000000000e+00  3.3168939953509654e-06 -2.9621257309374372e-05 0.0000000000000000e+00  1.3644703061212209e-06 -4.9052220022683171e-04 0.0000000000000000e+00  7.0857005174367404e-07 -4.9415553106281203e-04 0.0000000000000000e+00  5.0779254676763027e-07 -4.9349311086258941e-04 0.0000000000000000e+00  -3.0310621123281497e-06 -4.3592268118094579e-04 0.0000000000000000e+00  9.8773539627297771e-07 -4.9337252050119451e-04 0.0000000000000000e+00  3.7278103651318426e-07 -4.9185890808673056e-04 0.0000000000000000e+00  1.8795202051839900e-06 -4.8490652049414459e-04 0.0000000000000000e+00  2.8719795364085630e-07 -4.8961702481099595e-04 0.0000000000000000e+00  -2.1303686478075699e-06 -4.5663856186898243e-04 0.0000000000000000e+00  -5.4195394806589709e-06 -3.6197836193592117e-04 0.0000000000000000e+00  -8.0191155286774862e-06 -1.5440677049841656e-04 0.0000000000000000e+00  1.0388940244635255e-06 -4.8247130681885607e-04 0.0000000000000000e+00  1.1218640219615135e-06 -4.8706534040587630e-04 0.0000000000000000e+00  1.0672739686164039e-05 -2.5067869999910003e-04 0.0000000000000000e+00  -2.6405750110681274e-08 -4.8742383459350711e-04 0.0000000000000000e+00  -1.3113399605181249e-05 -2.5811375695811660e-04 0.0000000000000000e+00  1.2350123936434733e-06 -4.8925056860429537e-04 0.0000000000000000e+00  1.1066356863996428e-06 -4.9155672010697273e-04 0.0000000000000000e+00  8.9973557850430566e-07 -4.9329872964019872e-04 0.0000000000000000e+00  -9.2171677307704365e-08 -4.8205977502286063e-04 0.0000000000000000e+00  1.4506418994098268e-05 -1.4575371412753197e-04 0.0000000000000000e+00  1.3402126128390787e-07 -4.9358283017453925e-04 0.0000000000000000e+00  5.8542584450912046e-07 -4.9412924430191089e-04 0.0000000000000000e+00  7.1633874385904449e-06 -4.3225576005535555e-04 0.0000000000000000e+00  1.1144478714903839e-05 -3.5589678615576741e-04 0.0000000000000000e+00  -6.2959464564354506e-07 -4.8983589479798309e-04 0.0000000000000000e+00  -1.3128144079324183e-06 -4.8591653601726375e-04 0.0000000000000000e+00  5.6085641566907884e-06 -4.5389306924441990e-04 0.0000000000000000e+00  -2.6161015630773414e-06 -4.8644680929445252e-06 0.0000000000000000e+00  2.0912484650051630e-06 -3.9703675042747258e-06 0.0000000000000000e+00  3.4961298026685451e-06 -4.7786088024876996e-04 0.0000000000000000e+00  -8.0224245445532520e-06 -3.9182895831499414e-04 0.0000000000000000e+00  -1.2513647618062530e-05 -2.9473568267550702e-04 0.0000000000000000e+00  -1.2018159648548481e-05 -7.0949567404198876e-05 0.0000000000000000e+00  -1.3328310987516753e-05 -1.0725100393689326e-04 0.0000000000000000e+00  4.4316258443536644e-06 -4.6966726564039678e-04 0.0000000000000000e+00  -1.1557618472028714e-05 -3.2567109161120900e-04 0.0000000000000000e+00  -7.2994414534258910e-06 -4.1350333593557890e-04 0.0000000000000000e+00  -1.3970331037194488e-05 -2.0673041179316290e-04 0.0000000000000000e+00  -5.8711459983200130e-08 -4.8492166691710577e-04 0.0000000000000000e+00  1.3356466574642324e-06 -4.8486918561365262e-04 0.0000000000000000e+00  1.4737194027042364e-05 -2.0514108466811816e-04 0.0000000000000000e+00  -9.9001383904894521e-06 -3.8754113858877020e-05 0.0000000000000000e+00  -2.5471321173018331e-07 -4.8021806700520008e-04 0.0000000000000000e+00  -2.6928557686371875e-06 -4.7770333611601935e-04 0.0000000000000000e+00  -3.2798306028734415e-06 -4.6944532245449179e-04 0.0000000000000000e+00  1.6381224132068765e-05 -2.9335921899921035e-04 0.0000000000000000e+00  1.4571393500908717e-05 -6.9588271037740291e-05 0.0000000000000000e+00  1.6785667756840297e-05 -1.0788139712559801e-04 0.0000000000000000e+00  1.1069653802277891e-05 -3.9203483459948559e-04 0.0000000000000000e+00  1.6385982777064268e-05 -3.2464014852306240e-04 0.0000000000000000e+00  1.1027574798799461e-05 -4.1277286243527521e-04 0.0000000000000000e+00  -6.7498864225803519e-06 -2.2628787865258844e-05 0.0000000000000000e+00  -1.2904883961552275e-07 -4.7890642373483815e-04 0.0000000000000000e+00  1.2714451318565396e-06 -4.9019688194629392e-04 0.0000000000000000e+00  1.1036191318855217e-06 -4.9231051424924338e-04 0.0000000000000000e+00  1.6456411412782171e-05 -1.6869001727961528e-04 0.0000000000000000e+00  8.3575061511755145e-07 -4.9373576122439290e-04 0.0000000000000000e+00  -1.7456675255423997e-07 -4.8314718334233753e-04 0.0000000000000000e+00  4.3661452077082849e-07 -4.9408032851318544e-04 0.0000000000000000e+00  -1.3125923479796361e-07 -4.9284411029854014e-04 0.0000000000000000e+00  1.1888923903050985e-05 -3.7141498773178864e-04 0.0000000000000000e+00  -5.3437008595671856e-07 -4.9138817031919380e-04 0.0000000000000000e+00  7.4070148658375661e-06 -4.4144444962899895e-04 0.0000000000000000e+00  -1.8771380184931892e-06 -4.8295022171264911e-04 0.0000000000000000e+00  5.6823259983265882e-06 -4.6070240755480914e-04 0.0000000000000000e+00  1.4245972290548495e-06 -4.8036753070361060e-04 0.0000000000000000e+00  -1.5066359437871374e-07 -4.8639113858381372e-04 0.0000000000000000e+00  -1.5687460402817427e-05 -2.3685949972259026e-04 0.0000000000000000e+00  1.2160374950535856e-05 -4.1198452693636227e-05 0.0000000000000000e+00  6.8732643243397090e-06 -1.8716678775981211e-05 0.0000000000000000e+00  2.4318602429156849e-06 -4.8898224957427152e-04 0.0000000000000000e+00  -4.4193905689350008e-06 -4.6181397552496104e-04 0.0000000000000000e+00  1.5669362069025706e-06 -4.9266431152150236e-04 0.0000000000000000e+00  1.7126354546711139e-07 -4.9245135024317916e-04 0.0000000000000000e+00  9.2323840561704295e-07 -4.9405037839879396e-04 0.0000000000000000e+00  4.7620816339995695e-07 -4.9380853532041851e-04 0.0000000000000000e+00  -5.0876877689845133e-06 -4.4351472012308464e-04 0.0000000000000000e+00  3.3969334702709660e-06 -4.8237434932952103e-04 0.0000000000000000e+00  -1.0612869560122751e-05 -3.7414501073353970e-04 0.0000000000000000e+00  -7.6592405852343999e-06 -4.2775801135808877e-04 0.0000000000000000e+00  -1.1730193243139399e-07 -4.8880656967662699e-04 0.0000000000000000e+00  -1.2632362207271223e-05 -3.4855593025036146e-04 0.0000000000000000e+00  7.8936881845590403e-08 -4.9041430862880057e-04 0.0000000000000000e+00  -1.6304976095126396e-05 -1.7267624149594336e-04 0.0000000000000000e+00  -1.6734541672455855e-05 -1.3562837418960408e-04 0.0000000000000000e+00  1.4500610417082857e-06 -4.8164742040902376e-04 0.0000000000000000e+00  1.4783753160069037e-06 -4.8336476291322290e-04 0.0000000000000000e+00  3.3519412634277164e-07 -4.9300872049475876e-04 0.0000000000000000e+00  6.0616348552477800e-07 -4.9405796210242605e-04 0.0000000000000000e+00  1.5946885961355249e-06 -4.9173395689732446e-04 0.0000000000000000e+00  1.2863669990572435e-07 -4.9114811336173109e-04 0.0000000000000000e+00  9.9569274114130339e-07 -4.9383779157610892e-04 0.0000000000000000e+00  2.3899242338371967e-06 -4.8711187870372158e-04 0.0000000000000000e+00  -4.5368768539326446e-06 -4.5028284204821743e-04 0.0000000000000000e+00  1.7528371332484268e-05 -2.3297071119023638e-04 0.0000000000000000e+00  1.4549682387747218e-06 -4.8620757398209075e-04 0.0000000000000000e+00  1.3927629900528970e-06 -4.8789469688916844e-04 0.0000000000000000e+00  1.6506190315071835e-05 -2.6783141054970865e-04 0.0000000000000000e+00  -9.8172567137618947e-07 -4.8809784030018154e-04 