<?xml version="1.0"?>
<VTKFile type="UnstructuredGrid"  version="0.1"  >
<UnstructuredGrid>
<Piece  NumberOfPoints="439" NumberOfCells="725">
<Points>
<DataArray  type="Float64"  NumberOfComponents="3"  format="ascii">0.5670221731263289 0.06098576881219282 0  0.5769491594932956 0.0784867371666134 0  0.2489897949 0.21 0  0.2489897949 0.19 0  0.5719857068590096 0.06973628885785765 0  0.2496355385699469 0.2060260530378829 0  0.249959460510575 0.2020130349814059 0  0.2499594605105767 0.1979869650186357 0  0.24963553856995 0.1939739469621422 0  0.2541041018311737 0.2098504204410862 0  0.2592354222193767 0.2096836257369921 0  0.2643637049970651 0.2094697739119465 0  0.2694769044018708 0.2091131090250287 0  0.2745760480523008 0.2086781174546325 0  0.2796743308125004 0.2081329416498815 0  0.2847490182143067 0.2075301386791991 0  0.2897971013570766 0.2068277070628153 0  0.2948369181452098 0.2060454720693837 0  0.2998551306558338 0.2051845517744303 0  0.3048655816298458 0.2042166019414922 0  0.3098717430567647 0.2032308015573929 0  0.3148332185360186 0.2021289126628827 0  0.3198062977914384 0.2009599384333927 0  0.3247344118645376 0.199736580494241 0  0.3296490792473197 0.1984269176701221 0  0.3345432412326307 0.1970691567213278 0  0.339410281816599 0.195629593754804 0  0.3442552644915847 0.1941572846769777 0  0.3490791362971005 0.1926150798633703 0  0.3538802484929685 0.191025518803634 0  0.3586573017230059 0.1893896476718856 0  0.3634182554554418 0.1876746046843488 0  0.3681751099235299 0.1859478903325489 0  0.3728964410826561 0.1841540425361042 0  0.3775991029772747 0.1823328249978591 0  0.3822814307880503 0.1804605226104416 0  0.3869442139413776 0.1785522517055791 0  0.3915853814711107 0.1766106351308489 0  0.3962103194138922 0.174610878351421 0  0.4008321950933114 0.1726056468396104 0  0.4054190063872665 0.1705542551478736 0  0.4099920145145279 0.1684632730929056 0  0.414560128577566 0.1663634438737007 0  0.4190982086471018 0.1642229959266058 0  0.4236343237712887 0.1620593246156045 0  0.4281463246497241 0.1598733738638097 0  0.4326517619420674 0.1576571333351074 0  0.4371390469650429 0.1554270106205511 0  0.4416119727866434 0.1531726962898787 0  0.4460771124145032 0.1509008164356621 0  0.4505314121635585 0.1486093349714774 0  0.4549706377965176 0.1463020009421799 0  0.4594035246044271 0.1439798001479842 0  0.4638265428988825 0.1416411327526409 0  0.4682370222566086 0.1392896426295239 0  0.4726413548001682 0.1369265077791307 0  0.4770374963008632 0.1345502278953441 0  0.4814239864389419 0.1321647365770307 0  0.4858053994341736 0.1297702880303101 0  0.4901803199133279 0.127365929914774 0  0.4945476469736417 0.124954647444387 0  0.4989109716375434 0.1225368611400374 0  0.5032691794918022 0.1201118837347697 0  0.5076216639526201 0.1176821332107217 0  0.5119713176254949 0.115247628149538 0  0.516317131195718 0.1128084188493551 0  0.5206591829777705 0.1103659173814168 0  0.5249981500486685 0.1079210943085377 0  0.5293340049984441 0.1054733755552903 0  0.5336678500980209 0.1030231183973467 0  0.5380010282596206 0.1005726270422814 0  0.5423315454530808 0.09811998876428957 0  0.5466614525134477 0.09566644866904787 0  0.5509899236942452 0.09321260419928015 0  0.5553173377993066 0.09075810182777759 0  0.5596443938442393 0.08830370783670022 0  0.5639708243770715 0.0858492599658674 0  0.5682969818428514 0.083394838123339 0  0.5726231170128904 0.08094074529108819 0  0.5626961688198212 0.06343971207457044 0  0.5583703262357957 0.06589372324579834 0  0.5540446882185427 0.06834784622961566 0  0.5497193335514683 0.0708018206317919 0  0.5453941659937263 0.07325536808267362 0  0.5410693247006295 0.07570861002512884 0  0.5367446495354843 0.07816064584554558 0  0.5324204923248856 0.08061130843157294 0  0.5280960966369085 0.08306095043658734 0  0.5237717156360001 0.0855078460321629 0  0.5194475014404164 0.08795309322442121 0  0.5151221626878896 0.09039498286719438 0  0.5107965501612507 0.09283211431042201 0  0.5064716948346806 0.09526778502549109 0  0.502144358721391 0.09769750200288491 0  0.4978162497758876 0.100119548154492 0  0.4934888027127465 0.1025393149693243 0  0.4891568829939806 0.1049503896590333 0  0.4848236983045806 0.1073509033377085 0  0.4804912072593913 0.1097482998528009 0  0.4761521138751096 0.1121337544924825 0  0.4718110414859609 0.1145051489137811 0  0.4674706667441448 0.1168724923946584 0  0.4631212343305487 0.1192242555938405 0  0.458769020265493 0.1215576616131503 0  0.4544164868429084 0.1238841828489118 0  0.4500555879518605 0.1261933472107054 0  0.4456894705086452 0.1284787471491258 0  0.4413225971898423 0.1307595622993216 0  0.4369403247603141 0.1330168294224087 0  0.4325550938545638 0.1352427243641937 0  0.4281701032319704 0.1374610815898273 0  0.423770649672777 0.1396487746005836 0  0.4193634325726522 0.1418209414685359 0  0.4149480302058219 0.1439657444973915 0  0.4105185426402179 0.146077475499688 0  0.4060906312324271 0.1481686109452844 0  0.4016463608979739 0.1502265959781734 0  0.3971980028123023 0.1522539230746258 0  0.392741280958406 0.154245866399872 0  0.3882704729988332 0.156201395833438 0  0.3837831328416397 0.1581311732439775 0  0.3792814890885924 0.1600191488709909 0  0.3747889841102471 0.1618714995954699 0  0.3702662362690977 0.1636802671178097 0  0.365746480894512 0.1654364659673161 0  0.3612020198664539 0.1671610928464384 0  0.3566481720357509 0.168826962586154 0  0.3520761270395529 0.1704600030140114 0  0.347487538790608 0.172036634288919 0  0.3429133482823359 0.1735683858634035 0  0.3383030899563105 0.1750445746394918 0  0.3337021836670758 0.1764515798823477 0  0.3290636345335567 0.1778136358178895 0  0.3244168856921469 0.1790888661543652 0  0.3197739463486001 0.1803442232965802 0  0.3151019279616625 0.1815079656889273 0  0.3104514068278773 0.1826060327891217 0  0.3057604901225279 0.1836449373792003 0  0.3010647340290435 0.1845906383162118 0  0.296353908733981 0.1854860910318279 0  0.2916296892253407 0.1862921074541788 0  0.2869275273413674 0.187035532965449 0  0.2821840323847298 0.187698083790938 0  0.2774675989343776 0.1882766486093352 0  0.2727192686044835 0.1887576905405336 0  0.2679942921679808 0.1891539823598623 0  0.263247317364359 0.1894882054178704 0  0.2584955974171537 0.1897215258469243 0  0.2537442620126386 0.1898399629662691 0  0.5695039882837857 0.06536100373323392 0  0.5744673857856248 0.07411154333792026 0  0.2589889664606879 0.2003996130828331 0  0.5222271196995028 0.09793986788457051 0  0.5441801616912364 0.08547672945084121 0  0.2774577995316421 0.1992561262725022 0  0.4964852367585419 0.1122795330018839 0  0.5095025765661362 0.1049961776335127 0  0.2941594163831264 0.1954161693115893 0  0.556689468814606 0.07788567816759565 0  0.3098844511454615 0.1930610860614081 0  0.335862673984567 0.1872072091015951 0  0.4834390218313704 0.1195045569820665 0  0.3530556376454194 0.1807958052213676 0  0.4703530928393142 0.1266494430472234 0  0.3676163548175682 0.1755429855517736 0  0.385425292413097 0.1683771864096517 0  0.456718704666014 0.1335428967711516 0  0.4437298424605239 0.1408462674604321 0  0.3987735905117121 0.1627034230609896 0  0.4125889914544496 0.1562514661730596 0  0.4298796732754387 0.1478530589288574 0  0.3194714811366012 0.1908561545394963 0  0.5355836459526004 0.09037392687892219 0  0.4202367059426618 0.1524295555148436 0  0.3450097689868339 0.1836510553337379 0  0.3775876819443749 0.1717747203932002 0  0.2859239917571131 0.1974121527718055 0  0.5633464401891761 0.07260726999249392 0  0.2680748702884062 0.20099333443021 0  0.4513853214449406 0.1394200643876429 0  0.4777057704538583 0.1253368256266853 0  0.4907847070048522 0.1181447685538597 0  0.3913680249266011 0.1633842061533489 0  0.464577311693923 0.1324379480830209 0  0.5038257064013114 0.1108850094617554 0  0.4381147560002645 0.1462541988513956 0  0.5168392692686898 0.1035773923822578 0  0.4049033269880879 0.1573318014334968 0  0.3592943827964311 0.1761984008919125 0  0.3025648785881078 0.1922979184389513 0  0.549239885708765 0.0800381002226747 0  0.5272115090856724 0.09180424427283335 0  0.3279001891320327 0.1915976551405857 0  0.5287428922792041 0.09869384840595652 0  0.3281000900959632 0.184560339740793 0  0.5157384410935139 0.09712550198798185 0  0.502745138348631 0.1044301703943337 0  0.4897330233069966 0.1116858808713742 0  0.5541953297385144 0.08431114684295228 0  0.3015575941688032 0.1987250464980725 0  0.4636161154543202 0.125966869749567 0  0.4766934863644922 0.1188726742699531 0  0.3917723060809331 0.1698953790759259 0  0.3592898951862773 0.1827139765628927 0  0.4465957946021379 0.1349752151752037 0  0.4373011568195177 0.1397661660242115 0  0.4054503355048519 0.1638364067650709 0  0.2557017848743903 0.1960208479819769 0  0.255072814740036 0.203392883410225 0  0.4280407278163473 0.1529995210406525 0  0.3698877224905021 0.1705880066787475 0  0.3379467476319096 0.1815603339592572 0  0.2807271194262132 0.1940713917825514 0  0.2904841477718501 0.1927384642162342 0  0.4189293169723823 0.1576182781692224 0  0.3469647707050413 0.1786770230065995 0  0.3791911140300284 0.1666740168060262 0  0.3150738816447542 0.1879445735253065 0  0.540743908180495 0.09183203440060872 0  0.5371755015581529 0.08494461299858898 0  0.3164440248723172 0.1955462867442969 0  0.2706985753680771 0.1950310388362186 0  0.5632179967606298 0.08017266108263796 0  0.4242492324626158 0.1455654277442396 0  0.4151408029768522 0.1504495282787634 0  0.340140535887431 0.1900386070324719 0  0.2813300528389461 0.2027809001007093 0  0.2919382240584337 0.2013058834987698 0  0.3730165222590071 0.1782992875791269 0  0.3495782404639457 0.1874205521851026 0  0.3824097386875665 0.1752293482323254 0  0.2645721328184247 0.1957194710569711 0  0.5690256148341963 0.07608993471937572 0  0.5104004062358525 0.09957664684126795 0  0.4974015248270665 0.1068634034937111 0  0.3074083757515922 0.1980375601119518 0  0.4843813361662334 0.1140934667091191 0  0.549343811534412 0.08760904447369992 0  0.4713304807709406 0.121245410325211 0  0.4582751210394137 0.12826999854
[...]
<PointData  Vectors="f_20-1"> 
<DataArray  type="Float64"  Name="f_20-1"  NumberOfComponents="3" format="ascii">-3.2977826873671269e-02 -1.2901423118780711e-01 0.0000000000000000e+00  -2.3050840506704251e-02 -1.3151326283338660e-01 0.0000000000000000e+00  0.0000000000000000e+00 0.0000000000000000e+00 0.0000000000000000e+00  0.0000000000000000e+00 0.0000000000000000e+00 0.0000000000000000e+00  -2.8014293140990087e-02 -1.3026371114214239e-01 0.0000000000000000e+00  0.0000000000000000e+00 0.0000000000000000e+00 0.0000000000000000e+00  0.0000000000000000e+00 0.0000000000000000e+00 0.0000000000000000e+00  0.0000000000000000e+00 0.0000000000000000e+00 0.0000000000000000e+00  0.0000000000000000e+00 0.0000000000000000e+00 0.0000000000000000e+00  1.7050122554428525e-04 -1.4957955891382619e-04 0.0000000000000000e+00  3.5801590812250216e-04 -3.1637426300793180e-04 0.0000000000000000e+00  5.4249298017303063e-04 -5.3022608805340979e-04 0.0000000000000000e+00  7.1188667934089637e-04 -8.8689097497118884e-04 0.0000000000000000e+00  8.6722462414387416e-04 -1.3218825453674477e-03 0.0000000000000000e+00  1.0217016787251122e-03 -1.8670583501184195e-03 0.0000000000000000e+00  1.1525833749129512e-03 -2.4698613208008653e-03 0.0000000000000000e+00  1.2568608120600063e-03 -3.1722929371847527e-03 0.0000000000000000e+00  1.3528718945576507e-03 -3.9545279306163481e-03 0.0000000000000000e+00  1.4272786995630853e-03 -4.8154482255697451e-03 0.0000000000000000e+00  1.4939239679460454e-03 -5.7833980585078144e-03 0.0000000000000000e+00  1.5562796892466132e-03 -6.7691984426071269e-03 0.0000000000000000e+00  1.5739494628821109e-03 -7.8710873371173069e-03 0.0000000000000000e+00  1.6032230126835699e-03 -9.0400615666072683e-03 0.0000000000000000e+00  1.5875313801644196e-03 -1.0263419505758957e-02 0.0000000000000000e+00  1.5583930573279969e-03 -1.1573082329877894e-02 0.0000000000000000e+00  1.5087493370099163e-03 -1.2930843278672222e-02 0.0000000000000000e+00  1.4319842153705949e-03 -1.4370406245195916e-02 0.0000000000000000e+00  1.3331611847271245e-03 -1.5842715323022304e-02 0.0000000000000000e+00  1.2132272846245515e-03 -1.7384920136629661e-02 0.0000000000000000e+00  1.0705337748739688e-03 -1.8974481196365991e-02 0.0000000000000000e+00  9.0378129929311285e-04 -2.0610352328114423e-02 0.0000000000000000e+00  7.2092932611066130e-04 -2.2325395315651139e-02 0.0000000000000000e+00  5.3397808858029203e-04 -2.4052109667451096e-02 0.0000000000000000e+00  3.1150354207716731e-04 -2.5845957463895820e-02 0.0000000000000000e+00  7.0359731087012687e-05 -2.7667175002140890e-02 0.0000000000000000e+00  -1.9111816376171181e-04 -2.9539477389558481e-02 0.0000000000000000e+00  -4.7214071605610592e-04 -3.1447748294420874e-02 0.0000000000000000e+00  -7.7477889195235405e-04 -3.3389364869151020e-02 0.0000000000000000e+00  -1.0936466547782945e-03 -3.5389121648578964e-02 0.0000000000000000e+00  -1.4155766809871642e-03 -3.7394353160389589e-02 0.0000000000000000e+00  -1.7725710926442153e-03 -3.9445744852126374e-02 0.0000000000000000e+00  -2.1433686710031420e-03 -4.1536726907094319e-02 0.0000000000000000e+00  -2.5190603135857828e-03 -4.3636556126299263e-02 0.0000000000000000e+00  -2.9247859496618588e-03 -4.5777004073394252e-02 0.0000000000000000e+00  -3.3324765311030136e-03 -4.7940675384395490e-02 0.0000000000000000e+00  -3.7642813583009661e-03 -5.0126626136190199e-02 0.0000000000000000e+00  -4.2026497716099202e-03 -5.2342866664892594e-02 0.0000000000000000e+00  -4.6591704542900108e-03 -5.4572989379448898e-02 0.0000000000000000e+00  -5.1300503383533026e-03 -5.6827303710121256e-02 0.0000000000000000e+00  -5.6087164161414023e-03 -5.9099183564337888e-02 0.0000000000000000e+00  -6.0982223727278186e-03 -6.1390665028522626e-02 0.0000000000000000e+00  -6.6028024453983801e-03 -6.3697999057820101e-02 0.0000000000000000e+00  -7.1137213431394465e-03 -6.6020199852015835e-02 0.0000000000000000e+00  -7.6345087543172327e-03 -6.8358867247358984e-02 0.0000000000000000e+00  -8.1678351022582835e-03 -7.0710357370476096e-02 0.0000000000000000e+00  -8.7073082643451209e-03 -7.3073492220869299e-02 0.0000000000000000e+00  -9.2549724693128492e-03 -7.5449772104655893e-02 0.0000000000000000e+00  -9.8122880368647150e-03 -7.7835263422969272e-02 0.0000000000000000e+00  -1.0374680747287505e-02 -8.0229711969689824e-02 0.0000000000000000e+00  -1.0943565973761714e-02 -8.2634070085225969e-02 0.0000000000000000e+00  -1.1520044619107573e-02 -8.5045352555613074e-02 0.0000000000000000e+00  -1.2100525660843896e-02 -8.7463138859962569e-02 0.0000000000000000e+00  -1.2686123512201410e-02 -8.9888116265230314e-02 0.0000000000000000e+00  -1.3277444757021256e-02 -9.2317866789278294e-02 0.0000000000000000e+00  -1.3871596789805395e-02 -9.4752371850461939e-02 0.0000000000000000e+00  -1.4469588925221061e-02 -9.7191581150644885e-02 0.0000000000000000e+00  -1.5071342848828231e-02 -9.9634082618583156e-02 0.0000000000000000e+00  -1.5676181483568492e-02 -1.0207890569146227e-01 0.0000000000000000e+00  -1.6284132239408552e-02 -1.0452662444470961e-01 0.0000000000000000e+00  -1.6894092845469905e-02 -1.0697688160265328e-01 0.0000000000000000e+00  -1.7504720389525063e-02 -1.0942737295771862e-01 0.0000000000000000e+00  -1.8118008901707387e-02 -1.1188001123571045e-01 0.0000000000000000e+00  -1.8731907547000364e-02 -1.1433355133095212e-01 0.0000000000000000e+00  -1.9347242071866576e-02 -1.1678739580071980e-01 0.0000000000000000e+00  -1.9963633672439286e-02 -1.1924189817222235e-01 0.0000000000000000e+00  -2.0580383333144235e-02 -1.2169629216329977e-01 0.0000000000000000e+00  -2.1197758505962620e-02 -1.2415074003413261e-01 0.0000000000000000e+00  -2.1815406745829474e-02 -1.2660516187666102e-01 0.0000000000000000e+00  -2.2433077281450182e-02 -1.2905925470891175e-01 0.0000000000000000e+00  -3.2360025474561988e-02 -1.2656028792542953e-01 0.0000000000000000e+00  -3.1742062352962466e-02 -1.2410627675420162e-01 0.0000000000000000e+00  -3.1123894664576483e-02 -1.2165215377038435e-01 0.0000000000000000e+00  -3.0505443626004495e-02 -1.1919817936820809e-01 0.0000000000000000e+00  -2.9886805478125177e-02 -1.1674463191732640e-01 0.0000000000000000e+00  -2.9267841065601367e-02 -1.1429138997487119e-01 0.0000000000000000e+00  -2.8648710525133767e-02 -1.1183935415445448e-01 0.0000000000000000e+00  -2.8029062030103247e-02 -1.0938869156842705e-01 0.0000000000000000e+00  -2.7409652012449718e-02 -1.0693904956341262e-01 0.0000000000000000e+00  -2.6790227307703224e-02 -1.0449215396783708e-01 0.0000000000000000e+00  -2.6170635797687962e-02 -1.0204690677557876e-01 0.0000000000000000e+00  -2.5552168844615163e-02 -9.9605017132805604e-02 0.0000000000000000e+00  -2.4933975665645213e-02 -9.7167885689577946e-02 0.0000000000000000e+00  -2.4315025286582321e-02 -9.4732214974508899e-02 0.0000000000000000e+00  -2.3698555694271952e-02 -9.2302497997115096e-02 0.0000000000000000e+00  -2.3082858934136728e-02 -8.9880451845508039e-02 0.0000000000000000e+00  -2.2466500291675219e-02 -8.7460685030675681e-02 0.0000000000000000e+00  -2.1854614304842052e-02 -8.5049610340966725e-02 0.0000000000000000e+00  -2.1243993288637134e-02 -8.2649096662291449e-02 0.0000000000000000e+00  -2.0632678628189273e-02 -8.0251700147199095e-02 0.0000000000000000e+00  -2.0027966306862491e-02 -7.7866245507517529e-02 0.0000000000000000e+00  -1.9425232990392130e-02 -7.5494851086218867e-02 0.0000000000000000e+00  -1.8821802026589451e-02 -7.3127507605341577e-02 0.0000000000000000e+00  -1.8227428734555955e-02 -7.0775744406159413e-02 0.0000000000000000e+00  -1.7635837094003647e-02 -6.8442338386849780e-02 0.0000000000000000e+00  -1.7044564810959974e-02 -6.6115817151088177e-02 0.0000000000000000e+00  -1.6461657996394985e-02 -6.3806652789294580e-02 0.0000000000000000e+00  -1.5883969733989731e-02 -6.1521252850874265e-02 0.0000000000000000e+00  -1.5307037347167988e-02 -5.9240437700678328e-02 0.0000000000000000e+00  -1.4745504071066784e-02 -5.6983170577591252e-02 0.0000000000000000e+00  -1.4186929271207828e-02 -5.4757275635806367e-02 0.0000000000000000e+00  -1.3628114188176091e-02 -5.2538918410172733e-02 0.0000000000000000e+00  -1.3083762041752659e-02 -5.0351225399416430e-02 0.0000000000000000e+00  -1.2547173436260913e-02 -4.8179058531464133e-02 0.0000000000000000e+00  -1.2018770097464757e-02 -4.6034255502608562e-02 0.0000000000000000e+00  -1.1504451957430287e-02 -4.3922524500312005e-02 0.0000000000000000e+00  -1.0988557659578516e-02 -4.1831389054715604e-02 0.0000000000000000e+00  -1.0489022288385524e-02 -3.9773404021826650e-02 0.0000000000000000e+00  -9.9935746683971725e-03 -3.7746076925374218e-02 0.0000000000000000e+00  -9.5064908166418681e-03 -3.5754133600127969e-02 0.0000000000000000e+00  -9.0334930705568833e-03 -3.3798604166562017e-02 0.0000000000000000e+00  -8.5770275221150084e-03 -3.1868826756022456e-02 0.0000000000000000e+00  -8.1348655695157347e-03 -2.9980851129009178e-02 0.0000000000000000e+00  -7.6835648422351310e-03 -2.8128500404530129e-02 0.0000000000000000e+00  -7.2625069777280185e-03 -2.6319732882190357e-02 0.0000000000000000e+00  -6.8384566466652237e-03 -2.4563534032683861e-02 0.0000000000000000e+00  -6.4391119690546473e-03 -2.2838907153561593e-02 0.0000000000000000e+00  -6.0491540941104279e-03 -2.1173037413846001e-02 0.0000000000000000e+00  -5.6773933846578327e-03 -1.9539996985988631e-02 0.0000000000000000e+00  -5.3221759279810724e-03 -1.7963365711080946e-02 0.0000000000000000e+00  -4.9525607305950072e-03 -1.6431614136596544e-02 0.0000000000000000e+00  -4.6190133509814661e-03 -1.4955425360508187e-02 0.0000000000000000e+00  -4.2761139345777006e-03 -1.3548420117652239e-02 0.0000000000000000e+00  -3.9708573624585288e-03 -1.2186364182110549e-02 0.0000000000000000e+00  -3.6738004982281541e-03 -1.0911133845634866e-02 0.0000000000000000e+00  -3.3729341361170640e-03 -9.6557767034197405e-03 0.0000000000000000e+00  -3.1011468173967180e-03 -8.4920343110727065e-03 0.0000000000000000e+00  -2.8078622455239835e-03 -7.3939672108782745e-03 0.0000000000000000e+00  -2.5549732452301594e-03 -6.3550626207997335e-03 0.0000000000000000e+00  -2.3069236330762509e-03 -5.4093616837882991e-03 0.0000000000000000e+00  -2.0739432225002951e-03 -4.5139089681720031e-03 0.0000000000000000e+00  -1.8543570255022150e-03 -3.7078925458212211e-03 0.0000000000000000e+00  -1.6127132038199217e-03 -2.9644670345509412e-03 0.0000000000000000e+00  -1.4124024547998127e-03 -2.3019162090620591e-03 0.0000000000000000e+00  -1.1850301994939781e-03 -1.7233513906647884e-03 0.0000000000000000e+00  -9.8955482374083457e-04 -1.2423094594663662e-03 0.0000000000000000e+00  -7.7072555460530698e-04 -8.4601764013776204e-04 0.0000000000000000e+00  -5.7389465258868831e-04 -5.1179458212956318e-04 0.0000000000000000e+00  -3.8180889415580981e-04 -2.7847415307568138e-04 0.0000000000000000e+00  -1.8933859301929342e-04 -1.6003703373088766e-04 0.0000000000000000e+00  -3.0496011716214268e-02 -1.2963899626674433e-01 0.0000000000000000e+00  -2.5532614214375197e-02 -1.3088845666205265e-01 0.0000000000000000e+00  1.5539929038636188e-05 -1.5277626000720858e-04 0.0000000000000000e+00  -2.0919114685804943e-02 -1.0206013211539848e-01 0.0000000000000000e+00  -2.4059627785579508e-02 -1.1449372913005749e-01 0.0000000000000000e+00  6.4068198396909865e-06 -1.5380656696904146e-03 0.0000000000000000e+00  -1.7364346618354821e-02 -8.7622809647207991e-02 0.0000000000000000e+00  -1.9178423927601697e-02 -9.4906165015584174e-02 0.0000000000000000e+00  -3.5147882263843384e-04 -3.8750215289492765e-03 0.0000000000000000e+00  -2.6088614323886514e-02 -1.2165730193273921e-01 0.0000000000000000e+00  -5.2838851146409251e-04 -6.9093725194897355e-03 0.0000000000000000e+00  -1.1375015572880291e-03 -1.3622252141801712e-02 0.0000000000000000e+00  -1.5579144428675603e-02 -8.0397785667023672e-02 0.0000000000000000e+00  -2.2259799254849676e-03 -1.9204194778693274e-02 0.0000000000000000e+00  -1.3833656303878337e-02 -7.3252899601861543e-02 0.0000000000000000e+00  -3.1210165729869317e-03 -2.4471252143595253e-02 0.0000000000000000e+00  -4.4629650971526325e-03 -3.1622813590431120e-02 0.0000000000000000e+00  -1.2267050383259537e-02 -6.5998775654517824e-02 0.0000000000000000e+00  -1.0427889223672810e-02 -5.9153732539477706e-02 0.0000000000000000e+00  -5.5799008901209765e-03 -3.7394234289934755e-02 0.0000000000000000e+00  -6.9621002895072200e-03 -4.3748533827046132e-02 0.0000000000000000e+00  -8.8223045890123992e-03 -5.2132703375819822e-02 0.0000000000000000e+00  -7.7579388906902401e-04 -9.1527296751435644e-03 0.0000000000000000e+00  -2.2821708155484517e-02 -1.0961718890643550e-01 0.0000000000000000e+00  -7.8300087460516747e-03 -4.7419349305980518e-02 0.0000000000000000e+00  -1.7562256397135052e-03 -1.6500039845699595e-02 0.0000000000000000e+00  -3.7849526215160021e-03 -2.8376374786251893e-02 0.0000000000000000e+00  -1.4434593509666689e-04 -2.6293917988127590e-03 0.0000000000000000e+00  -2.7775940988943332e-02 -1.2563764594238047e-01 0.0000000000000000e+00  8.5554142543578613e-05 -6.8179121651901924e-04 0.0000000000000000e+00  -1.0188118797687251e-02 -6.2830298941157395e-02 0.0000000000000000e+00  -1.3530504022487141e-02 -7.6913537702123794e-02 0.0000000000000000e+00  -1.5282984588346170e-02 -8.4105594774952122e-02 0.0000000000000000e+00  -5.9359411420762606e-03 -3.4365430517847496e-02 0.0000000000000000e+00  -1.1827545665566675e-02 -6.9812415245784229e-02 0.0000000000000000e+00  -1.7073402308733759e-02 -9.1365353867062987e-02 0.0000000000000000e+00  -8.6272671255012215e-03 -5.5996164477404388e-02 0.0000000000000000e+00  -1.8891256558195017e-02 -9.8672970946562022e-02 0.0000000000000000e+00  -7.2320561974438284e-03 -4.0417835237700782e-02 0.0000000000000000e+00  -3.4029433329042036e-03 -2.1551235779279438e-02 0.0000000000000000e+00  -8.0677907378830281e-04 -5.4517182322355463e-03 0.0000000000000000e+00  -2.6041085763057713e-02 -1.1771153644847557e-01 0.0000000000000000e+00  -2.3248346833383750e-02 -1.0532423420093337e-01 0.0000000000000000e+00  -2.9258408265141249e-04 -1.1273866385654868e-02 0.0000000000000000e+00  -1.9675009770541999e-02 -1.0514647316351972e-01 0.0000000000000000e+00  -2.1346369880356213e-03 -1.1599338689756138e-02 0.0000000000000000e+00  -2.2182644130297365e-02 -9.8999679676429114e-02 0.0000000000000000e+00  -2.0344529758334385e-02 -9.1695011270072041e-02 0.0000000000000000e+00  -1.8525227683125652e-02 -8.4439300793035604e-02 0.0000000000000000e+00  -2.3276201130195240e-02 -1.1956367149263640e-01 0.0000000000000000e+00  3.7649590384843416e-04 -5.1497718375212659e-03 0.0000000000000000e+00  -1.4979301302090846e-02 -7.0158311914837040e-02 0.0000000000000000e+00  -1.6733347508774917e-02 -7.7252507394453232e-02 0.0000000000000000e+00  -3.3411005908299679e-03 -3.3979439259670653e-02 0.0000000000000000e+00  -1.2168715461344697e-03 -2.1160841772702336e-02 0.0000000000000000e+00  -1.2787086243576643e-02 -6.1149966489195628e-02 0.0000000000000000e+00  -1.1631425703162725e-02 -5.6359015640189178e-02 0.0000000000000000e+00  -4.4944882837701337e-03 -4.0038411570528121e-02 0.0000000000000000e+00  -8.4515105806669348e-05 -6.4989043752587081e-05 0.0000000000000000e+00  5.8078709096078691e-05 -4.9759588886445808e-05 0.0000000000000000e+00  -6.7624198301215284e-03 -5.0774236723502876e-02 0.0000000000000000e+00  -4.7484791179079498e-03 -2.5638235557107800e-02 0.0000000000000000e+00  -2.6790889545207038e-03 -1.4486458234731809e-02 0.0000000000000000e+00  -5.7304869277009719e-04 -1.9754004114987895e-03 0.0000000000000000e+00  -7.8449097213930492e-04 -3.3431686486939194e-03 0.0000000000000000e+00  -5.7412166096068116e-03 -4.6334929636731977e-02 0.0000000000000000e+00  -3.1974050278716802e-03 -1.7369769187588292e-02 0.0000000000000000e+00  -5.5777016422410182e-03 -2.9372775388209739e-02 0.0000000000000000e+00  -1.5584868936018752e-03 -8.2148850380635713e-03 0.0000000000000000e+00  -2.1411092924846022e-02 -1.1194961485929039e-01 0.0000000000000000e+00  -2.5265886143824162e-02 -1.1113157936254872e-01 0.0000000000000000e+00  2.0452128900431092e-04 -8.3216689981722505e-03 0.0000000000000000e+00  -3.9013805268506887e-04 -9.3860549636519126e-04 0.0000000000000000e+00  -2.4083440879730494e-02 -1.2455012702044434e-01 0.0000000000000000e+00  -1.0418724181655025e-02 -4.9899718211011641e-02 0.0000000000000000e+00  -9.1888474309464088e-03 -4.5426169815142768e-02 0.0000000000000000e+00  -1.1541519592125543e-04 -1.4755442996620419e-02 0.0000000000000000e+00  4.6156016285282548e-04 -1.9933416805563938e-03 0.0000000000000000e+00  5.3052074456155394e-04 -3.4750682083257186e-03 0.0000000000000000e+00  -1.7548703514861379e-03 -2.6235566465728524e-02 0.0000000000000000e+00  -3.4340842594096828e-04 -1.7754789133527842e-02 0.0000000000000000e+00  -2.1185501416632517e-03 -2.9945993086310671e-02 0.0000000000000000e+00  -2.4235372708045563e-04 -4.8950324166627810e-04 0.0000000000000000e+00  -2.5299149532092981e-02 -1.2795160763954247e-01 0.0000000000000000e+00  -2.1696854809761985e-02 -9.6067863063819300e-02 0.0000000000000000e+00  -1.9864319101705944e-02 -8.8781106411374322e-02 0.0000000000000000e+00  4.1605019132641825e-04 -6.3092432753033122e-03 0.0000000000000000e+00  -1.8053090645693100e-02 -8.1551043195967315e-02 0.0000000000000000e+00  -2.2316492039023143e-02 -1.1673775891357620e-01 0.0000000000000000e+00  -1.6272528924133466e-02 -7.4399099579872147e-02 0.0000000000000000e+00  -1.4540076490212699e-02 -6.7370248344721398e-02 0.0000000000000000e+00  -1.3541942785612506e-03 -2.3197478611037811e-02 0.0000000000000000e+00  -1.3660663827472936e-02 -6.3783385081103330e-02 0.0000000000000000e+00  -3.5920242535785810e-03 -3.6361054350974767e-02 0.0000000000000000e+00  -1.1233981372193811e-02 -5.3676621595764883e-02 0.0000000000000000e+00  -4.7853784763994284e-03 -4.2536114419605392e-02 0.0000000000000000e+00  -2.8465909398020801e-02 -1.2302689795349164e-01 0.0000000000000000e+00  -2.0093884118349042e-02 -1.0806546297499936e-01 0.0000000000000000e+00  -2.0309888706757651e-03 -1.0092544912375302e-02 0.0000000000000000e+00  3.7789386743367119e-04 -1.0409713832353572e-03 0.0000000000000000e+00  2.0388732725270444e-04 -3.9484995159284886e-04 0.0000000000000000e+00  -8.5718430397317066e-03 -6.0871839428014711e-02 0.0000000000000000e+00  -8.6097673061120410e-03 -4.2170603702475523e-02 0.0000000000000000e+00  -1.0162734695358304e-02 -6.7820327427222493e-02 0.0000000000000000e+00  -1.5364236889275013e-02 -8.9293680317633670e-02 0.0000000000000000e+00  -1.1872112207900399e-02 -7.4876758526102608e-02 0.0000000000000000e+00  -1.3595583821243765e-02 -8.2048614128211517e-02 0.0000000000000000e+00  -7.0097724427888941e-03 -3.6232383767769369e-02 0.0000000000000000e+00  -7.1522273076529957e-03 -5.4112219099053838e-02 0.0000000000000000e+00  -4.4646590858890018e-03 -2.3037237204977978e-02 0.0000000000000000e+00  -6.4819949767317645e-03 -3.2307371761201548e-02 0.0000000000000000e+00  -1.8295362737986310e-02 -1.0133225898731323e-01 0.0000000000000000e+00  -3.9014095073703504e-03 -1.9835164664371695e-02 0.0000000000000000e+00  -1.7487879140938550e-02 -9.6414286959415924e-02 0.0000000000000000e+00  -1.3837607794011306e-03 -6.3321966170405376e-03 0.0000000000000000e+00  -1.1197078510651619e-03 -4.5441723506893412e-03 0.0000000000000000e+00  -2.7684639962837789e-02 -1.1961580767477063e-01 0.0000000000000000e+00  -2.6635722252205011e-02 -1.1504005900384305e-01 0.0000000000000000e+00  -1.5263274313363702e-02 -8.6792136441182291e-02 0.0000000000000000e+00  -1.3502762216515011e-02 -7.9570756339417778e-02 0.0000000000000000e+00  -9.9968413141499485e-03 -6.5344426622761881e-02 0.0000000000000000e+00  -1.6925383667236719e-02 -9.4028581194946656e-02 0.0000000000000000e+00  -1.1789819789502004e-02 -7.2430906698786338e-02 0.0000000000000000e+00  -8.3872092527913431e-03 -5.8463688432441166e-02 0.0000000000000000e+00  -7.4164353753162814e-03 -3.8201428628161380e-02 0.0000000000000000e+00  2.8054578768912968e-04 -1.0120409139772664e-02 0.0000000000000000e+00  -2.4741313047137930e-02 -1.0742953311945848e-01 0.0000000000000000e+00  -2.3497204695330509e-02 -1.0279737160714189e-01 0.0000000000000000