<?xml version="1.0"?>
<VTKFile type="UnstructuredGrid"  version="0.1"  >
<UnstructuredGrid>
<Piece  NumberOfPoints="439" NumberOfCells="725">
<Points>
<DataArray  type="Float64"  NumberOfComponents="3"  format="ascii">0.5817983519460802 0.09224808045211803 0  0.5894033512023235 0.1109341737691346 0  0.2489897949 0.21 0  0.2489897949 0.19 0  0.5856009120763401 0.1015911545089223 0  0.2496355385699469 0.2060260530378829 0  0.249959460510575 0.2020130349814059 0  0.2499594605105767 0.1979869650186357 0  0.24963553856995 0.1939739469621422 0  0.2540617420388882 0.2098881280982361 0  0.2591461667336913 0.2097656301339408 0  0.2642287529229045 0.2096094535748882 0  0.2693017852710851 0.2093487546429885 0  0.274365719328058 0.2090313041987872 0  0.2794313653452162 0.208633613855082 0  0.2844810716509 0.2081942538840375 0  0.2895140897678687 0.2076817164347529 0  0.2945437923099146 0.2071112428246564 0  0.2995606167344196 0.2064831053651292 0  0.3045763851357742 0.2057770274840202 0  0.309589835060841 0.2050584217266451 0  0.3145761994716314 0.2042533778161266 0  0.319574805244794 0.2034004811592742 0  0.3245434688151094 0.2025060223311468 0  0.3295075711898168 0.2015480581093537 0  0.3344597764699895 0.2005541415819628 0  0.3393975607208046 0.1994988815138088 0  0.3443215340959388 0.1984185992419957 0  0.349235089790617 0.1972857288931985 0  0.354135537722803 0.1961167416562508 0  0.3590219512447294 0.1949120421016211 0  0.3639029663020285 0.1936477086016294 0  0.3687820590964137 0.1923746239552243 0  0.373640574427439 0.1910490373019084 0  0.3784877219182514 0.1897016637413345 0  0.383324373411703 0.1883145205754786 0  0.3881498227083227 0.1868988984215223 0  0.3929622855029258 0.1854563335288018 0  0.3977681938020943 0.1839684522246472 0  0.4025724802529386 0.1824762131820127 0  0.4073548515823707 0.180945672553839 0  0.4121307998819835 0.179383549874164 0  0.4169040382221064 0.1778141932584956 0  0.421658561675321 0.1762106489911726 0  0.4264141267979238 0.1745889937500865 0  0.4311535065193575 0.1729475047895711 0  0.4358911813753091 0.1712817402153482 0  0.4406162663826474 0.1696031476602684 0  0.4453327916394588 0.1679039677749054 0  0.4500452198827737 0.16619002554856 0  0.4547513806999974 0.1644592935769956 0  0.4594473688112412 0.1627142384872483 0  0.4641400378463823 0.1609564828659032 0  0.4688267516641638 0.1591843150829416 0  0.4735048319444489 0.1574003272663846 0  0.4781793147289884 0.1556060911169924 0  0.4828487122962731 0.1538001299330556 0  0.4875112722122724 0.1519854545632806 0  0.4921707222272199 0.1501627291913624 0  0.4968260037580668 0.1483309891720831 0  0.5014757673856137 0.1464925566469816 0  0.5061229583390462 0.1446481515651876 0  0.5107667188128641 0.1427970591852707 0  0.5154061836171857 0.1409412273183513 0  0.5200438021302829 0.1390809817159255 0  0.5246786999582805 0.1372162374308583 0  0.5293107479271746 0.1353481960463116 0  0.5339403974421845 0.1334777735968484 0  0.5385676581251315 0.1316044601198217 0  0.5431934328844787 0.1297286773797389 0  0.5478186501039148 0.1278526008351826 0  0.5524417459236654 0.1259743205566048 0  0.5570643843048045 0.1240951613284937 0  0.5616857606773099 0.1222155608992532 0  0.5663062311118962 0.1203352521121039 0  0.5709263574072869 0.1184549967832862 0  0.5755458882990597 0.1165746273715725 0  0.5801651306330454 0.1146942516427836 0  0.5847843051752927 0.1128141769817103 0  0.5771793784686062 0.09412808870912 0  0.5725605103586532 0.09600818624132432 0  0.5679418013524393 0.0978884061270963 0  0.5633233313396033 0.09976853288895932 0  0.5587050446826904 0.1016483030350331 0  0.5540870520883249 0.1035278303270079 0  0.5494692960045147 0.1054063101382826 0  0.5448521223491473 0.1072836289208703 0  0.5402348065081156 0.1091600151523791 0  0.5356177636610312 0.1110339982331503 0  0.5310010083948682 0.1129065550084317 0  0.5263835876431728 0.1147760621101501 0  0.5217664069671868 0.1166414187684671 0  0.5171500120005963 0.1185056085681471 0  0.5125320724899077 0.1203643998485484 0  0.5079142708540784 0.1222165609048074 0  0.5032972482106975 0.1240668693792149 0  0.4986773166523174 0.1259093049766649 0  0.4940574330469603 0.1277427232229641 0  0.4894384294103061 0.1295736221302527 0  0.4848151384147665 0.1313938019055516 0  0.4801916924348958 0.1332021211872818 0  0.475569209537353 0.1350071912503005 0  0.4709408760908828 0.1367984243245612 0  0.466312198318276 0.1385743910135928 0  0.4616839491030111 0.140344757442997 0  0.4570506640031696 0.1421000887121251 0  0.452415648585193 0.1438357961266063 0  0.4477803932509088 0.1455677143249831 0  0.4431352395589777 0.1472791684098289 0  0.4384909165182774 0.1489654726961494 0  0.4338474662681953 0.1506458923967711 0  0.4291956553841992 0.152300617465559 0  0.424539246621276 0.1539424133618801 0  0.419879081685842 0.1555620127680468 0  0.4152112160809415 0.1571546081779846 0  0.410546406762327 0.1587314234229459 0  0.4058721773555129 0.1602811007035448 0  0.4011975909700408 0.1618069315797005 0  0.3965197759848461 0.1633049632245024 0  0.3918344941181213 0.164774026628427 0  0.3871389251842293 0.1662219477260719 0  0.3824362210509586 0.1676370043152651 0  0.3777432340222488 0.1690260173724716 0  0.3730312842550662 0.170379727390211 0  0.3683257208514994 0.1716943808684257 0  0.36360428539059 0.1729832989562403 0  0.3588804411631555 0.1742278004493876 0  0.3541455551836515 0.1754463131811778 0  0.34940261130265 0.1766217310367511 0  0.344673207549818 0.1777648966413485 0  0.3399212163081325 0.1788644096358716 0  0.3351804836088779 0.1799135551541924 0  0.3304151526620582 0.1809269084579137 0  0.3256490514850154 0.1818759506961353 0  0.3208867828538103 0.1828103043593458 0  0.3161085049307226 0.1836756332839893 0  0.3113490175022284 0.1844937538655862 0  0.3065632004735802 0.1852661217225237 0  0.3017781549753654 0.1859698091076577 0  0.2969843030927461 0.1866355552386909 0  0.2921842546521641 0.1872350137829162 0  0.2874023069501727 0.1877889292929125 0  0.2825931870073874 0.1882817716708773 0  0.2778060448375442 0.1887133894747107 0  0.272998320042282 0.1890721673002975 0  0.2682094845749247 0.1893685972268548 0  0.2634058474846476 0.1896181857477613 0  0.2586001829940691 0.189792781860931 0  0.2537959435183617 0.1898819668756463 0  0.5836996917112472 0.0969195956549707 0  0.5875020958648545 0.1062626832383343 0  0.258987837106205 0.2004381417536006 0  0.5324741704296265 0.123195051309987 0  0.5559158868399545 0.1136425094338655 0  0.2774769204819084 0.1996575634358904 0  0.5050255711215459 0.1341359076654972 0  0.5189091810402237 0.12856873294083 0  0.2943156474988678 0.1964303517996519 0  0.569336863493617 0.1077140162390055 0  0.3101593191343538 0.1948773378763979 0  0.3365051104717106 0.1907927791050398 0  0.4911239568771119 0.1396502952572167 0  0.3541935320642014 0.1858265825830289 0  0.4771981694278008 0.1450932142945272 0  0.3692061300831952 0.1819329792041787 0  0.3876874234993906 0.1765927527599031 0  0.4627654631406917 0.150236228498897 0  0.4489349842703448 0.1558949125067022 0  0.401601919924557 0.1723785754894239 0  0.4160927531880848 0.167513260671428 0  0.4342979716651447 0.1611863873575484 0  0.3198744565281269 0.1932629647703993 0  0.5467341414631535 0.1173992972264509 0  0.4241532505310364 0.1645983215224862 0  0.3459196682063512 0.1879808974404125 0  0.3795234147134993 0.1791666195376742 0  0.286001473415089 0.1980998963946293 0  0.5766392547195087 0.103327463173212 0  0.268061516742054 0.2011703471701073 0  0.4567289629719009 0.1554197441613569 0  0.4846789654998368 0.1447202078904157 0  0.4986042248850839 0.1392372697872664 0  0.3941448422128186 0.1722508932942424 0  0.4707231001695954 0.1501221039490772 0  0.5125053041244452 0.1336929593686472 0  0.4426883327647452 0.1605897970511455 0  0.5263883318265995 0.1281045654314653 0  0.4083111143160837 0.1677149643076823 0  0.3608379759444284 0.1818050622643915 0  0.3028778301289786 0.1937208379119437 0  0.5616509187747859 0.1088898792645257 0  0.5382238985463327 0.1177387528887106 0  0.3282398527922075 0.1945836667758805 0  0.5388560060808918 0.1247869636328618 0  0.3289413750220659 0.1875769182487096 0  0.5261265006104461 0.121547462277191 0  0.5122612340225691 0.1271357605058905 0  0.4983850616174117 0.1326800871260239 0  0.566025161848536 0.1137798690091858 0  0.3015486577494546 0.2000928023751733 0  0.4705800353859863 0.1435654451440998 0  0.4844932200809084 0.1381632857870067 0  0.393850564119039 0.1787807782541626 0  0.3602383500171115 0.1883029136305144 0  0.4525114014389846 0.1504066004949465 0  0.442665301908286 0.1540361570784836 0  0.4081257923095232 0.1742536339604105 0  0.2557258267132136 0.1960370597564084 0  0.2550590815893445 0.2034049088776905 0  0.4318561852572825 0.1660889089130319 0  0.3719579170573959 0.1772173025107309 0  0.3390299818420867 0.1853238386426152 0  0.2809069100319848 0.1945808600148485 0  0.2907450026951841 0.1936046425820699 0  0.4222488597636919 0.1696112916476075 0  0.3482905266954992 0.1831857947924474 0  0.3816440830491625 0.1742490711471153 0  0.3156590308882077 0.1900812403516063 0  0.5516766304687679 0.1195167427031293 0  0.5490195997427534 0.1122070695179302 0  0.3165623450436479 0.1977573846607755 0  0.2708144287958265 0.1952715050269107 0  0.5755322150350515 0.1108330060198958 0  0.4289629159651014 0.1582409205740836 0  0.4193075716278916 0.1620339746680571 0  0.3405512258743051 0.1939602361811708 0  0.2812361071512763 0.2033084600597826 0  0.2918525451752809 0.2022292671158455 0  0.3743220366652441 0.1852125064763896 0  0.3501605746583191 0.1921348071945387 0  0.3839781124914615 0.1831074462663444 0  0.2646430475553205 0.1958446316217877 0  0.5818352535131837 0.1075253707096979 0  0.5205012097351795 0.1232959965663168 0  0.5066330496767777 0.1288682985779823 0  0.3074169610545105 0.1997157427270293 0  0.492752822425686 0.1343900338075864 0  0.5607743193469641 0.1164309367815362 0  0.4788553514818791 0.1398429428055741 0  0.4649746004244285 0.1451867255507236 0  0.36604491371284 0.18729402226018
[...]
<PointData  Vectors="f_20-1"> 
<DataArray  type="Float64"  Name="f_20-1"  NumberOfComponents="3" format="ascii">-1.8201648053919953e-02 -9.7751919547881899e-02 0.0000000000000000e+00  -1.0596648797676394e-02 -9.9065826230865406e-02 0.0000000000000000e+00  0.0000000000000000e+00 0.0000000000000000e+00 0.0000000000000000e+00  0.0000000000000000e+00 0.0000000000000000e+00 0.0000000000000000e+00  -1.4399087923659680e-02 -9.8408845491077743e-02 0.0000000000000000e+00  0.0000000000000000e+00 0.0000000000000000e+00 0.0000000000000000e+00  0.0000000000000000e+00 0.0000000000000000e+00 0.0000000000000000e+00  0.0000000000000000e+00 0.0000000000000000e+00 0.0000000000000000e+00  0.0000000000000000e+00 0.0000000000000000e+00 0.0000000000000000e+00  1.2814143325889769e-04 -1.1187190176385845e-04 0.0000000000000000e+00  2.6876042243712147e-04 -2.3436986605917615e-04 0.0000000000000000e+00  4.0754090601250104e-04 -3.9054642511170536e-04 0.0000000000000000e+00  5.3676754855508282e-04 -6.5124535701143490e-04 0.0000000000000000e+00  6.5689589990115891e-04 -9.6869580121278242e-04 0.0000000000000000e+00  7.7873621144095495e-04 -1.3663861449179520e-03 0.0000000000000000e+00  8.8463681150631501e-04 -1.8057461159625054e-03 0.0000000000000000e+00  9.7384922285220787e-04 -2.3182835652470844e-03 0.0000000000000000e+00  1.0597460592623503e-03 -2.8887571753436684e-03 0.0000000000000000e+00  1.1327647781488627e-03 -3.5168946348708976e-03 0.0000000000000000e+00  1.2047274738743660e-03 -4.2229725159797608e-03 0.0000000000000000e+00  1.2743716933229954e-03 -4.9415782733548963e-03 0.0000000000000000e+00  1.3169303984948580e-03 -5.7466221838734085e-03 0.0000000000000000e+00  1.3717304660390991e-03 -6.5995188407257498e-03 0.0000000000000000e+00  1.3965883307361922e-03 -7.4939776688531506e-03 0.0000000000000000e+00  1.4168849998251925e-03 -8.4519418906463008e-03 0.0000000000000000e+00  1.4252845743687862e-03 -9.4458584180371584e-03 0.0000000000000000e+00  1.4192631195762302e-03 -1.0501118486191209e-02 0.0000000000000000e+00  1.3994307890812299e-03 -1.1581400758004323e-02 0.0000000000000000e+00  1.3691807781410438e-03 -1.2714271106801470e-02 0.0000000000000000e+00  1.3258230047085684e-03 -1.3883258343749160e-02 0.0000000000000000e+00  1.2684308210166458e-03 -1.5087957898378877e-02 0.0000000000000000e+00  1.2056401726973313e-03 -1.6352291398370612e-02 0.0000000000000000e+00  1.1409272614641155e-03 -1.7625376044775726e-02 0.0000000000000000e+00  1.0556368868601237e-03 -1.8950962698091503e-02 0.0000000000000000e+00  9.5897867206369591e-04 -2.0298336258665485e-02 0.0000000000000000e+00  8.5182445989097735e-04 -2.1685479424521391e-02 0.0000000000000000e+00  7.3346805088896788e-04 -2.3101101578477636e-02 0.0000000000000000e+00  6.0212513986271528e-04 -2.4543666471198201e-02 0.0000000000000000e+00  4.6422773342366701e-04 -2.6031547775352826e-02 0.0000000000000000e+00  3.2470847864005017e-04 -2.7523786817987290e-02 0.0000000000000000e+00  1.6327410245999387e-04 -2.9054327446160950e-02 0.0000000000000000e+00  -4.5833035475742901e-06 -3.0616450125835970e-02 0.0000000000000000e+00  -1.7515066904532039e-04 -3.2185806741504369e-02 0.0000000000000000e+00  -3.6443292144274625e-04 -3.3789351008827420e-02 0.0000000000000000e+00  -5.5267350446790424e-04 -3.5411006249913522e-02 0.0000000000000000e+00  -7.5709948866769096e-04 -3.7052495210428811e-02 0.0000000000000000e+00  -9.6323033836823234e-04 -3.8718259784651765e-02 0.0000000000000000e+00  -1.1819510366854712e-03 -4.0396852339731580e-02 0.0000000000000000e+00  -1.4092314855377842e-03 -4.2096032225094560e-02 0.0000000000000000e+00  -1.6406089478708333e-03 -4.3809974451439970e-02 0.0000000000000000e+00  -1.8782538362890533e-03 -4.5540706423004416e-02 0.0000000000000000e+00  -2.1260714306748159e-03 -4.7285761512751733e-02 0.0000000000000000e+00  -2.3772081011842802e-03 -4.9043517134096763e-02 0.0000000000000000e+00  -2.6342999890359587e-03 -5.0815684917058367e-02 0.0000000000000000e+00  -2.9000254144179172e-03 -5.2599672733615425e-02 0.0000000000000000e+00  -3.1693483355249505e-03 -5.4393908883007658e-02 0.0000000000000000e+00  -3.4437564739029708e-03 -5.6199870066944428e-02 0.0000000000000000e+00  -3.7250022635342255e-03 -5.8014545436719397e-02 0.0000000000000000e+00  -4.0093579542411391e-03 -5.9837270808637620e-02 0.0000000000000000e+00  -4.2978821290229133e-03 -6.1669010827916947e-02 0.0000000000000000e+00  -4.5919242071355507e-03 -6.3507443353018389e-02 0.0000000000000000e+00  -4.8885389593410324e-03 -6.5351848434812385e-02 0.0000000000000000e+00  -5.1885841911395308e-03 -6.7202940814729301e-02 0.0000000000000000e+00  -5.4929250924556725e-03 -6.9058772681648672e-02 0.0000000000000000e+00  -5.7991122850173599e-03 -7.0919018284074514e-02 0.0000000000000000e+00  -6.1080201626585442e-03 -7.2783762569141736e-02 0.0000000000000000e+00  -6.4197778994241617e-03 -7.4651803953688395e-02 0.0000000000000000e+00  -6.7339340900523263e-03 -7.6522226403151608e-02 0.0000000000000000e+00  -7.0504791127212491e-03 -7.8395539880178250e-02 0.0000000000000000e+00  -7.3685100590121623e-03 -8.0271322620261126e-02 0.0000000000000000e+00  -7.6870985452308282e-03 -8.2147399164817420e-02 0.0000000000000000e+00  -8.0078084311229567e-03 -8.4025679443395174e-02 0.0000000000000000e+00  -8.3289757556435414e-03 -8.5904838671506320e-02 0.0000000000000000e+00  -8.6514050888017759e-03 -8.7784439100746792e-02 0.0000000000000000e+00  -8.9747403598498376e-03 -8.9664747887896010e-02 0.0000000000000000e+00  -9.2984197700965426e-03 -9.1545003216713786e-02 0.0000000000000000e+00  -9.6226945839743006e-03 -9.3425372628427553e-02 0.0000000000000000e+00  -9.9472579556354086e-03 -9.5305748357216405e-02 0.0000000000000000e+00  -1.0271889119047844e-02 -9.7185823018289610e-02 0.0000000000000000e+00  -1.7876815825777041e-02 -9.5871911290879977e-02 0.0000000000000000e+00  -1.7551878230104991e-02 -9.3991813758675644e-02 0.0000000000000000e+00  -1.7226781530679854e-02 -9.2111593872903713e-02 0.0000000000000000e+00  -1.6901445837869369e-02 -9.0231467111040672e-02 0.0000000000000000e+00  -1.6575926789161054e-02 -8.8351696964966905e-02 0.0000000000000000e+00  -1.6250113677905985e-02 -8.6472169672992122e-02 0.0000000000000000e+00  -1.5924064056103467e-02 -8.4593689861717419e-02 0.0000000000000000e+00  -1.5597432005841707e-02 -8.2716371079129686e-02 0.0000000000000000e+00  -1.5270942141242496e-02 -8.0839984847620852e-02 0.0000000000000000e+00  -1.4944179282672153e-02 -7.8966001766849647e-02 0.0000000000000000e+00  -1.4617128843236101e-02 -7.7093444991568227e-02 0.0000000000000000e+00  -1.4290743889331875e-02 -7.5223937889849934e-02 0.0000000000000000e+00  -1.3964118859709185e-02 -7.3358581231532868e-02 0.0000000000000000e+00  -1.3636708120666693e-02 -7.1494391431852933e-02 0.0000000000000000e+00  -1.3310841925755167e-02 -6.9635600151451649e-02 0.0000000000000000e+00  -1.2984837855945933e-02 -6.7783439095192646e-02 0.0000000000000000e+00  -1.2658054793724241e-02 -6.5933130620785027e-02 0.0000000000000000e+00  -1.2334180646505195e-02 -6.4090695023335045e-02 0.0000000000000000e+00  -1.2010258546257506e-02 -6.2257276777035894e-02 0.0000000000000000e+00  -1.1685456477274465e-02 -6.0426377869747312e-02 0.0000000000000000e+00  -1.1364941767205610e-02 -5.8606198094448371e-02 0.0000000000000000e+00  -1.1044582041457165e-02 -5.6797878812718146e-02 0.0000000000000000e+00  -1.0723259233381213e-02 -5.4992808749699543e-02 0.0000000000000000e+00  -1.0407786974221895e-02 -5.3201575675438789e-02 0.0000000000000000e+00  -1.0092659041220638e-02 -5.1425608986407238e-02 0.0000000000000000e+00  -9.7771025508572619e-03 -4.9655242557003050e-02 0.0000000000000000e+00  -9.4665819450859383e-03 -4.7899911287874776e-02 0.0000000000000000e+00  -9.1577916574418303e-03 -4.6164203873393754e-02 0.0000000000000000e+00  -8.8492412861015893e-03 -4.4432285675016864e-02 0.0000000000000000e+00  -8.5505892724032240e-03 -4.2720831590171059e-02 0.0000000000000000e+00  -8.2511066074942175e-03 -4.1034527303850640e-02 0.0000000000000000e+00  -7.9507511519512717e-03 -3.9354107603228917e-02 0.0000000000000000e+00  -7.6587563303304584e-03 -3.7699382534441037e-02 0.0000000000000000e+00  -7.3713593876371403e-03 -3.6057586638119858e-02 0.0000000000000000e+00  -7.0877186174446551e-03 -3.4437987231953252e-02 0.0000000000000000e+00  -6.8117785167066671e-03 -3.2845391822015443e-02 0.0000000000000000e+00  -6.5327821296785370e-03 -3.1268576577054147e-02 0.0000000000000000e+00  -6.2632058308465131e-03 -2.9718899296455232e-02 0.0000000000000000e+00  -5.9939865106587581e-03 -2.8193068420299523e-02 0.0000000000000000e+00  -5.7279957902018237e-03 -2.6695036775497578e-02 0.0000000000000000e+00  -5.4694719512688077e-03 -2.5225973371572969e-02 0.0000000000000000e+00  -5.2212351795254451e-03 -2.3778052273928096e-02 0.0000000000000000e+00  -4.9801336071495939e-03 -2.2362995684734915e-02 0.0000000000000000e+00  -4.7293149302335101e-03 -2.0973982627528365e-02 0.0000000000000000e+00  -4.4974589917594655e-03 -1.9620272609789036e-02 0.0000000000000000e+00  -4.2592166896777452e-03 -1.8305619131574309e-02 0.0000000000000000e+00  -4.0368464449185449e-03 -1.7016701043759672e-02 0.0000000000000000e+00  -3.8168849667057545e-03 -1.5772199550612431e-02 0.0000000000000000e+00  -3.6079652405592612e-03 -1.4553686818822164e-02 0.0000000000000000e+00  -3.4071034159389654e-03 -1.3378268963248948e-02 0.0000000000000000e+00  -3.1927014631130406e-03 -1.2235103358651587e-02 0.0000000000000000e+00  -3.0008869991594456e-03 -1.1135590364128430e-02 0.0000000000000000e+00  -2.7978139927755728e-03 -1.0086444845807514e-02 0.0000000000000000e+00  -2.6193392339569424e-03 -9.0730915420863707e-03 0.0000000000000000e+00  -2.4416347053596616e-03 -8.1240493038647714e-03 0.0000000000000000e+00  -2.2600976309068489e-03 -7.1896956406541845e-03 0.0000000000000000e+00  -2.0945698483365908e-03 -6.3243667160106272e-03 0.0000000000000000e+00  -1.9102515711729281e-03 -5.5062461344137894e-03 0.0000000000000000e+00  -1.7522628941780329e-03 -4.7338782774763210e-03 0.0000000000000000e+00  -1.5935026867543104e-03 -4.0301908923423323e-03 0.0000000000000000e+00  -1.4435488637351490e-03 -3.3644447613090239e-03 0.0000000000000000e+00  -1.2997915986788244e-03 -2.7649862170837556e-03 0.0000000000000000e+00  -1.1379335950146929e-03 -2.2110707070874098e-03 0.0000000000000000e+00  -1.0032478321421498e-03 -1.7182283291227371e-03 0.0000000000000000e+00  -8.4658429632742587e-04 -1.2866105252892920e-03 0.0000000000000000e+00  -7.1050338594235460e-04 -9.2783269970249057e-04 0.0000000000000000e+00  -5.5553314766127110e-04 -6.3140277314526004e-04 0.0000000000000000e+00  -4.1536453230003845e-04 -3.8181425223862421e-04 0.0000000000000000e+00  -2.7722331724031502e-04 -2.0721813906901532e-04 0.0000000000000000e+00  -1.3765708729610100e-04 -1.1803312435370184e-04 0.0000000000000000e+00  -1.6300308288752677e-02 -9.8080404345007546e-02 0.0000000000000000e+00  -1.2497904135145470e-02 -9.8737316761638605e-02 0.0000000000000000e+00  1.4410574555734791e-05 -1.1424758923970209e-04 0.0000000000000000e+00  -1.0672063955681097e-02 -7.6804948689982028e-02 0.0000000000000000e+00  -1.2323902636861500e-02 -8.6327949147033206e-02 0.0000000000000000e+00  2.5527770105932649e-05 -1.1366285063021636e-03 0.0000000000000000e+00  -8.8240122553508542e-03 -6.5766434983594690e-02 0.0000000000000000e+00  -9.7718194535142550e-03 -7.1333609708266868e-02 0.0000000000000000e+00  -1.9524770689693336e-04 -2.8608390408866977e-03 0.0000000000000000e+00  -1.3441219644875621e-02 -9.1828963861329327e-02 0.0000000000000000e+00  -2.5352052257187631e-04 -5.0931207044998530e-03 0.0000000000000000e+00  -4.9506507014454354e-04 -1.0036682138356996e-02 0.0000000000000000e+00  -7.8942093829340830e-03 -6.0252047391873537e-02 0.0000000000000000e+00  -1.0880855067029955e-03 -1.4173417417031899e-02 0.0000000000000000e+00  -6.9885797153917684e-03 -5.4809128354557722e-02 0.0000000000000000e+00  -1.5312413073599819e-03 -1.8081258491190199e-02 0.0000000000000000e+00  -2.2008340108590134e-03 -2.3407247240179684e-02 0.0000000000000000e+00  -6.2202919085817369e-03 -4.9305443926772469e-02 0.0000000000000000e+00  -5.2227474138518892e-03 -4.4105087493207608e-02 0.0000000000000000e+00  -2.7515714772760815e-03 -2.7719081861500489e-02 0.0000000000000000e+00  -3.4583385558721366e-03 -3.2486739328677752e-02 0.0000000000000000e+00  -4.4040061993064882e-03 -3.8799374947128838e-02 0.0000000000000000e+00  -3.7281849754337783e-04 -6.7459194442405701e-03 0.0000000000000000e+00  -1.1671212644931527e-02 -8.2591818558906779e-02 0.0000000000000000e+00  -3.9134641576770096e-03 -3.5250583298337898e-02 0.0000000000000000e+00  -8.4632642019617300e-04 -1.2170197739024951e-02 0.0000000000000000e+00  -1.8492198523915092e-03 -2.0984475641777911e-02 0.0000000000000000e+00  -6.6864277120765411e-05 -1.9416481759889138e-03 0.0000000000000000e+00  -1.4483126458610744e-02 -9.4917452761662399e-02 0.0000000000000000e+00  7.2200596191412313e-05 -5.0477847662176397e-04 0.0000000000000000e+00  -4.8444772707269441e-03 -4.6830619167443410e-02 0.0000000000000000e+00  -6.5573089765086686e-03 -5.7530155438393404e-02 0.0000000000000000e+00  -7.4634667081144787e-03 -6.3013093541545412e-02 0.0000000000000000e+00  -3.1591238558587595e-03 -2.5498743376954076e-02 0.0000000000000000e+00  -5.6817571898942609e-03 -5.2128259379727968e-02 0.0000000000000000e+00  -8.3938045856000558e-03 -6.8557403960171223e-02 0.0000000000000000e+00  -4.0536903610205524e-03 -4.1660566277654507e-02 0.0000000000000000e+00  -9.3421940002853514e-03 -7.4145797897354593e-02 0.0000000000000000e+00  -3.8242688694479061e-03 -3.0034672363515355e-02 0.0000000000000000e+00  -1.8593501849068785e-03 -1.5944574406800381e-02 0.0000000000000000e+00  -4.9382753291746825e-04 -4.0287987592431207e-03 0.0000000000000000e+00  -1.3630052697036892e-02 -8.8859757406624565e-02 0.0000000000000000e+00  -1.2235957372723474e-02 -7.9389725585056081e-02 0.0000000000000000e+00  4.7079577523450498e-05 -8.2878547503600925e-03 0.0000000000000000e+00  -9.5618959688543309e-03 -7.9053357936614430e-02 0.0000000000000000e+00  -1.2933520619328941e-03 -8.5827601818394984e-03 0.0000000000000000e+00  -1.1794584613365284e-02 -7.4577719387219965e-02 0.0000000000000000e+00  -1.0828434084396344e-02 -6.8989421158515224e-02 0.0000000000000000e+00  -9.8731893727106116e-03 -6.3445094538385871e-02 0.0000000000000000e+00  -1.1446369020173612e-02 -9.0094949326402912e-02 0.0000000000000000e+00  3.6755948449977222e-04 -3.7820159604204069e-03 0.0000000000000000e+00  -8.0153813704248369e-03 -5.2559736520304240e-02 0.0000000000000000e+00  -8.9336137923587047e-03 -5.7961895877399638e-02 0.0000000000000000e+00  -1.2628425527239635e-03 -2.5094040081433993e-02 0.0000000000000000e+00  -2.6841671530029556e-04 -1.5571904705080622e-02 0.0000000000000000e+00  -6.8714794067299915e-03 -4.5718581169452772e-02 0.0000000000000000e+00  -6.2672806143945197e-03 -4.2089024585917074e-02 0.0000000000000000e+00  -1.8190314790987848e-03 -2.9621184375188545e-02 0.0000000000000000e+00  -6.0473266983433390e-05 -4.8777269321029546e-05 0.0000000000000000e+00  4.4345558404622119e-05 -3.7734121420906697e-05 0.0000000000000000e+00  -2.9469623891863485e-03 -3.7684848851123443e-02 0.0000000000000000e+00  -2.6782845510140646e-03 -1.9008939725124397e-02 0.0000000000000000e+00  -1.5958547443437109e-03 -1.0722953551373796e-02 0.0000000000000000e+00  -3.9325808699859519e-04 -1.4659321792016805e-03 0.0000000000000000e+00  -5.2363604880526274e-04 -2.4769902828582634e-03 0.0000000000000000e+00  -2.4216738182972803e-03 -3.4341916158346857e-02 0.0000000000000000e+00  -1.8716490374137760e-03 -1.2860997401740374e-02 0.0000000000000000e+00  -3.1247326231068711e-03 -2.1797721047120678e-02 0.0000000000000000e+00  -9.7333765014829827e-04 -6.0782182117636897e-03 0.0000000000000000e+00  -1.0478370636573021e-02 -8.4264906556769825e-02 0.0000000000000000e+00  -1.3421787959223611e-02 -8.3869122843207536e-02 0.0000000000000000e+00  3.2284146033505413e-04 -6.1105710816936262e-03 0.0000000000000000e+00  -2.7428462493569620e-04 -6.9813930567313174e-04 0.0000000000000000e+00  -1.1769222605308709e-02 -9.3889782083186449e-02 0.0000000000000000e+00  -5.7050406791694331e-03 -3.7224225381167736e-02 0.0000000000000000e+00  -5.0220787799070262e-03 -3.3841723425849020e-02 0.0000000000000000e+00  2.9527479095278693e-04 -1.0833813847921505e-02 0.0000000000000000e+00  3.6761447518304406e-04 -1.4657817214830306e-03 0.0000000000000000e+00  4.4484186140871705e-04 -2.5516845912500171e-03 0.0000000000000000e+00  -4.4935594524919329e-04 -1.9322347568465795e-02 0.0000000000000000e+00  2.3892576843251995e-04 -1.3040534124091717e-02 0.0000000000000000e+00  -5.5017633776832209e-04 -2.2067895052291644e-02 0.0000000000000000e+00  -1.7143899018467836e-04 -3.6434267684968934e-04 0.0000000000000000e+00  -1.2489510853105554e-02 -9.6516171649220328e-02 0.0000000000000000e+00  -1.1596051310434813e-02 -7.2348513338770459e-02 0.0000000000000000e+00  -1.0632794251994806e-02 -6.6776211327103152e-02 0.0000000000000000e+00  4.2463549424472314e-04 -4.6310606602258161e-03 0.0000000000000000e+00  -9.6816043862404493e-03 -6.1254476097500031e-02 0.0000000000000000e+00  -1.0885984226470941e-02 -8.7915866605739898e-02 0.0000000000000000e+00  -8.7476582131950035e-03 -5.5801567099509015e-02 0.0000000000000000e+00  -7.8405971051978933e-03 -5.0453521340265872e-02 0.0000000000000000e+00  -2.8526393991381367e-04 -1.7073432603671702e-02 0.0000000000000000e+00  -7.3798376737172836e-03 -4.7728983675264069e-02 0.0000000000000000e+00  -1.3337007418381074e-03 -2.6862888978058941e-02 0.0000000000000000e+00  -6.1136983045056142e-03 -4.0073207322510282e-02 0.0000000000000000e+00  -1.9086254460796625e-03 -3.1482385461893685e-02 0.0000000000000000e+00  -1.5150373882473301e-02 -9.2993912105711687e-02 0.0000000000000000e+00  -9.7101297944288349e-03 -8.1270665331345401e-02 0.0000000000000000e+00  -1.2646365129973347e-03 -7.4719908592087280e-03 0.0000000000000000e+00  2.9205105633282381e-04 -7.6695745702518036e-04 0.0000000000000000e+00  1.5601674044483273e-04 -2.9247498543903157e-04 0.0000000000000000e+00  -3.7482389102108135e-03 -4.5285388665701531e-02 0.0000000000000000e+00  -4.7563817273051576e-03 -3.1400303498934495e-02 0.0000000000000000e+00  -4.5502913230012453e-03 -5.0550416441520321e-02 0.0000000000000000e+00  -7.2300674578332381e-03 -6.6907139969013263e-02 0.0000000000000000e+00  -5.4320008156104951e-03 -5.5915078640776675e-02 0.0000000000000000e+00  -6.3164044178555803e-03 -6.1377814548904681e-02 0.0000000000000000e+00  -3.8632098361154350e-03 -2.6928657445733205e-02 0.0000000000000000e+00  -3.0586760686163350e-03 -4.0183370866222499e-02 0.0000000000000000e+00  -2.5787562587189384e-03 -1.7081181613556016e-02 0.0000000000000000e+00  -3.6574361958437306e-03 -2.4004375515999727e-02 0.0000000000000000e+00  -8.7433243358568686e-03 -7.6109478250013726e-02 0.0000000000000000e+00  -2.2935720730380880e-03 -1.4701325142352086e-02 0.0000000000000000e+00  -8.4175095957315128e-03 -7.2370320846244132e-02 0.0000000000000000e+00  -8.9520977891080597e-04 -4.6894335476085555e-03 0.0000000000000000e+00  -7.4414659687244014e-04 -3.3677710105619743e-03 0.0000000000000000e+00  -1.4757163914542099e-02 -9.0384928574426870e-02 0.0000000000000000e+00  -1.4229012310924152e-02 -8.6885207381698776e-02 0.0000000000000000e+00  -7.2964703262538141e-03 -6.5025576720364353e-02 0.0000000000000000e+00  -6.3869450347775365e-03 -5.9517153909301512e-02 0.0000000000000000e+00  -4.5636484279516845e-03 -4.8694391931820978e-02 0.0000000000000000e+00  -8.1313021155130175e-03 -7.0547612082843894e-02 0.0000000000000000e+00  -5.5075888468227663e-03 -5.4082182355464366e-02 0.0000000000000000e+00  -3.7418720395502240e-03 -4.3483104944852718e-02 0.0000000000000000e+00  -4.0689406555218608e-03 -2.8403895711636654e-02 0.0000000000000000e+00  4.3174223976381301e-04 -7.4259965872397809e-03 0.0000000000000000e+00  -1.3237997869271731e-02 -8.1056756352434478e-02 0.0000000000000000e+00  -1.2566414488838188e-02 -7.7505227941777360e-02 0.0000000000000000e+00  3.3