<?xml version="1.0"?>
<VTKFile type="UnstructuredGrid"  version="0.1"  >
<UnstructuredGrid>
<Piece  NumberOfPoints="439" NumberOfCells="725">
<Points>
<DataArray  type="Float64"  NumberOfComponents="3"  format="ascii">0.5907088887100584 0.1198963023220087 0  0.5959672089770708 0.1393254899414926 0  0.2489897949 0.21 0  0.2489897949 0.19 0  0.5933381041159447 0.1296109049456756 0  0.2496355385699469 0.2060260530378829 0  0.249959460510575 0.2020130349814059 0  0.2499594605105767 0.1979869650186357 0  0.24963553856995 0.1939739469621422 0  0.2540352638176233 0.2099108517634918 0  0.2590898670509237 0.2098142173830681 0  0.2641428557216213 0.209691529808216 0  0.2691885674059977 0.2094879935440639 0  0.2742272353049454 0.2092411500057984 0  0.2792676730576921 0.2089328526459173 0  0.2842960628418186 0.2085931627420979 0  0.289312387617 0.2081978411306398 0  0.2943268349970079 0.2077590713338864 0  0.2993323279258163 0.2072771620762688 0  0.3043383662779137 0.2067375969093188 0  0.3093426037133453 0.2061891110572692 0  0.3143284637503505 0.2055765787820769 0  0.3193242842767695 0.2049299207523792 0  0.3242990111106964 0.20425258347509 0  0.3292720809022888 0.2035299420105041 0  0.3342373594331577 0.2027815834833067 0  0.339194123366942 0.2019895776169264 0  0.3441417471635168 0.2011800999554993 0  0.3490836787891353 0.2003338393774687 0  0.3540175916959172 0.1994624627830828 0  0.358943046338503 0.1985665409332429 0  0.3638669837422608 0.1976305058368607 0  0.368789679372923 0.1966889228460624 0  0.3737005854498091 0.1957117730429482 0  0.3786047861747521 0.1947203405458317 0  0.3835036625415895 0.1937027806396275 0  0.3883963911404039 0.1926666590634031 0  0.3932819400498068 0.1916131710398321 0  0.3981653842432884 0.1905313023726322 0  0.4030477675435692 0.1894469361065402 0  0.4079183531825095 0.1883381294703303 0  0.4127865409055352 0.1872103579605643 0  0.4176532896199587 0.1860783506851937 0  0.422510551074664 0.1849253345333274 0  0.42736923726214 0.1837620947040971 0  0.4322194949742821 0.182586860601904 0  0.4370699339020269 0.1813979639753075 0  0.4419139118192463 0.1802014227563603 0  0.4467542373722333 0.1789932525564853 0  0.4515930404526305 0.1777770490062306 0  0.4564292611201995 0.1765516631515067 0  0.4612608576857124 0.1753182550657998 0  0.4660913766722031 0.174078281903534 0  0.4709195382215763 0.1728306989451917 0  0.475743978066074 0.1715767445608427 0  0.4805671554482082 0.1703176692520413 0  0.4853884181797903 0.1690526469812501 0  0.4902068595766285 0.1677831160663633 0  0.4950242449383727 0.1665097302558477 0  0.4998401283914061 0.1652319592957378 0  0.5046538400971876 0.1639508596441828 0  0.5094666976703881 0.1626670222456821 0  0.5142783553444762 0.1613800589555076 0  0.5190883852886664 0.1600908240527107 0  0.5238978470900485 0.1587996653442333 0  0.5287063684855542 0.1575064830421541 0  0.5335138510427816 0.1562118186144006 0  0.5383204592990564 0.1549160665270159 0  0.5431262485307712 0.1536190587105996 0  0.5479315647822001 0.1523210411338072 0  0.5527366562259147 0.1510229005523073 0  0.5575410212977202 0.1497238173680772 0  0.5623452365438263 0.1484244172511083 0  0.5671489899578412 0.1471247982347969 0  0.5719524077767852 0.1458249023560178 0  0.5767556841903794 0.1445250133529986 0  0.5815587209429949 0.1432250771380054 0  0.5863616149265258 0.1419251329827278 0  0.5911644540619407 0.1406253023088508 0  0.5859061763973644 0.1211962044546926 0  0.5811034477981551 0.1224961564635953 0  0.5763007525571449 0.1237961622803066 0  0.5714981097627631 0.1250961776074973 0  0.5666955237809945 0.126396098666498 0  0.5618930414706369 0.1276959615481743 0  0.5570906896731032 0.1289954850316469 0  0.5522886190122501 0.1302946383548104 0  0.547486553187129 0.1315934549739179 0  0.5426847445250701 0.1328913982524227 0  0.5378831525738689 0.134188824434386 0  0.5330815106405717 0.1354850343195459 0  0.528280261205726 0.1367796206646278 0  0.5234794345509562 0.1380737939371134 0  0.5186783781941781 0.1393656718459443 0  0.513877871516058 0.1406547790912978 0  0.5090778650110251 0.1419431496557853 0  0.5042772112695506 0.1432279504085868 0  0.4994772640672078 0.1445087688906166 0  0.4946779456014135 0.1457885116047687 0  0.4898775268170636 0.1470631287886923 0  0.4850779450375728 0.1483322182184488 0  0.480279123276611 0.1495998281443403 0  0.4754786151150508 0.1508604853991025 0  0.4706791104716191 0.1521136460135925 0  0.4658802994534619 0.1533640149444068 0  0.4610801945337075 0.1546066253555547 0  0.4562806913025872 0.1558390112944474 0  0.4514814901529463 0.1570694552721993 0  0.4466786885747051 0.1582885529064482 0  0.4418781927202116 0.1594942500526316 0  0.437078719860481 0.1606967032071084 0  0.4322766411164154 0.1618846582128288 0  0.4274730336658827 0.1630650138802154 0  0.4226689970768692 0.16423268277767 0  0.4178624872327008 0.1653843302934174 0  0.4130589913693032 0.1665270071591916 0  0.4082518582442977 0.1676531746448633 0  0.4034462359858874 0.1687650180263587 0  0.3986406825777506 0.1698598824723719 0  0.3938326452203548 0.1709364990023041 0  0.389019818154911 0.1719994579326733 0  0.3842046483467373 0.1730414244035879 0  0.37939733042373 0.1740674302283586 0  0.374580241071206 0.175069640102447 0  0.3697697158768373 0.1760469047817585 0  0.3649505309196441 0.1770063731202992 0  0.3601322244906854 0.177936163688781 0  0.3553082965366595 0.1788480266302197 0  0.3504813013020198 0.1797303603801651 0  0.345665276148394 0.1805912710857382 0  0.3408361921907109 0.1814209486879748 0  0.3360174673808975 0.182216126696382 0  0.3311834494747717 0.1829850000777101 0  0.3263517602039155 0.1837081277056811 0  0.3215236379540095 0.184420642295416 0  0.3166870326584751 0.1850830925374529 0  0.311865882608901 0.1857116193160493 0  0.3070275096771857 0.186305846500461 0  0.3021921225076004 0.1868493753676519 0  0.297351752230315 0.1873643531765216 0  0.2925088368144259 0.187829648915402 0  0.2876807996607567 0.1882609404563356 0  0.2828341661793829 0.1886452182615587 0  0.2780056794865566 0.1889833872039911 0  0.2731632013810252 0.1892651105846475 0  0.2683365493346322 0.1894989573589431 0  0.2634994656700186 0.1896960891573617 0  0.2586618307999529 0.189834675496048 0  0.2538262216746628 0.1899065150445831 0  0.592023536521382 0.1247535972251626 0  0.5946526562609687 0.134468200796285 0  0.2589858317555809 0.2004598841831008 0  0.5381030157543185 0.1445538371277868 0  0.5624757449179542 0.1379334938119164 0  0.2774795198444279 0.1998991916614569 0  0.5096063187279507 0.1521184481620429 0  0.5240213617721693 0.148248503732568 0  0.2943861322291496 0.1970567297046585 0  0.5764873516595228 0.1336953532206511 0  0.3102739028241569 0.1960203241821046 0  0.3367670947152768 0.1931262125906626 0  0.4951868555249029 0.1559645726750108 0  0.3546969120551784 0.1891881001550489 0  0.4807610275989538 0.1597768054221404 0  0.3699231332091359 0.1862943356917427 0  0.388733470308371 0.1823556367226087 0  0.4658762598328787 0.1632854040226808 0  0.4515479090315759 0.1674331579408135 0  0.4029312048220637 0.1793042929893895 0  0.4177765882988829 0.1757502681438305 0  0.4364742543519987 0.1711997693382604 0  0.3200443049438365 0.1947965236320027 0  0.5529266741305594 0.1405386465050091 0  0.4260616891237491 0.1736066036897787 0  0.3463152235501716 0.1908395060131806 0  0.3804045880381831 0.1842878680929804 0  0.2860325461580606 0.1985200849474204 0  0.5842523786950776 0.1302401403700938 0  0.2680491221593188 0.2012748942880919 0  0.4593329139238057 0.1677815069311416 0  0.4882203952372807 0.1602526587679097 0  0.5026486131487973 0.1564220969888427 0  0.3955164601804873 0.1785540292745299 0  0.4737828503452008 0.1640437006059345 0  0.5170698020950715 0.1525629546156753 0  0.4448667421280917 0.171451282637103 0  0.5314859629176859 0.1486842522834565 0  0.4100154766588197 0.1752510018315989 0  0.3615848990106258 0.1856028445772059 0  0.3030335922555053 0.1946123419650611 0  0.5687326706839589 0.1339246901334861 0  0.5444560583571358 0.1398445642451794 0  0.3283348556060569 0.1964979465384381 0  0.5442322287488317 0.1469010352683894 0  0.3293712506078207 0.1895388503484472 0  0.5320118194340621 0.142158927410143 0  0.5176031178783531 0.1460387254600222 0  0.5031928794438746 0.149899466180743 0  0.5724706195967905 0.1392989249806828 0  0.3014993909341003 0.2009381563748576 0  0.4743630576402842 0.1575261280316529 0  0.4887800385697598 0.1537322746984054 0  0.394690773123401 0.1850306926197819 0  0.3605636423663137 0.1920437726742522 0  0.4556760586092014 0.1623609102119102 0  0.4455088854907997 0.1649426676366611 0  0.409255555352188 0.1817389693853511 0  0.2557397264411304 0.1960457780594189 0  0.2550500580044442 0.2034113847244474 0  0.4335719473184389 0.1758314924037715 0  0.3730038951516621 0.1817925951672477 0  0.3395816580318606 0.1878053243370371 0  0.2810070180901236 0.1948923564789315 0  0.2908864052165573 0.1941409878782466 0  0.4237010744657074 0.178411552127256 0  0.3489621384499331 0.1861962347000783 0  0.3828914110227868 0.1795523214175622 0  0.3159619521549866 0.1914463637240773 0  0.5575651484294404 0.1432353999720197 0  0.5558195686415555 0.1356746011474438 0  0.3165550692751862 0.1991505272547863 0  0.2708805427125965 0.1954162448732536 0  0.582243407050175 0.1375377628912644 0  0.431458738940725 0.1677539741818483 0  0.4214832766733395 0.170603115071685 0  0.3406322572585575 0.1965087757422539 0  0.2811644855152807 0.2036259014863789 0  0.2917725323246549 0.2027924240792004 0  0.3747863918782465 0.1899306128916927 0  0.3503005190776454 0.1952387540097467 0  0.3845414983996113 0.1885569559118554 0  0.2646835596646674 0.1959186859399079 0  0.5888873630737975 0.1350292523252695 0  0.526228127505004 0.1432169180441044 0  0.5118193127159917 0.1470899560251103 0  0.3073649903447079 0.2007601774601379 0  0.4974088793280929 0.1509406339067224 0  0.5669488081509999 0.1412854429875171 0  0.4829955907637988 0.1547592374525497 0  0.4686192884581132 0.1585188596670511 0  0.3664107365728931 0.1914246246662135 
[...]
<PointData  Vectors="f_20-1"> 
<DataArray  type="Float64"  Name="f_20-1"  NumberOfComponents="3" format="ascii">-9.2911112899415962e-03 -7.0103697677991225e-02 0.0000000000000000e+00  -4.0327910229290467e-03 -7.0674510058507403e-02 0.0000000000000000e+00  0.0000000000000000e+00 0.0000000000000000e+00 0.0000000000000000e+00  0.0000000000000000e+00 0.0000000000000000e+00 0.0000000000000000e+00  -6.6618958840551521e-03 -7.0389095054324419e-02 0.0000000000000000e+00  0.0000000000000000e+00 0.0000000000000000e+00 0.0000000000000000e+00  0.0000000000000000e+00 0.0000000000000000e+00 0.0000000000000000e+00  0.0000000000000000e+00 0.0000000000000000e+00 0.0000000000000000e+00  0.0000000000000000e+00 0.0000000000000000e+00 0.0000000000000000e+00  1.0166321199402529e-04 -8.9148236508202760e-05 0.0000000000000000e+00  2.1246073966946121e-04 -1.8578261693191756e-04 0.0000000000000000e+00  3.2164370472918661e-04 -3.0847019178398532e-04 0.0000000000000000e+00  4.2354968346773196e-04 -5.1200645593610990e-04 0.0000000000000000e+00  5.1841187678845150e-04 -7.5884999420154013e-04 0.0000000000000000e+00  6.1504392391681514e-04 -1.0671473540827022e-03 0.0000000000000000e+00  6.9962800242491692e-04 -1.4068372579021391e-03 0.0000000000000000e+00  7.7214707198339748e-04 -1.8021588693601868e-03 0.0000000000000000e+00  8.4278874635569255e-04 -2.2409286661136201e-03 0.0000000000000000e+00  9.0447596954558744e-04 -2.7228379237312188e-03 0.0000000000000000e+00  9.6670861601390312e-04 -3.2624030906812252e-03 0.0000000000000000e+00  1.0271403458272388e-03 -3.8108889427308193e-03 0.0000000000000000e+00  1.0691946772139384e-03 -4.4234212179231165e-03 0.0000000000000000e+00  1.1212094980145391e-03 -5.0700792476208022e-03 0.0000000000000000e+00  1.1521306263231699e-03 -5.7474165249100052e-03 0.0000000000000000e+00  1.1813947122971253e-03 -6.4700579894959309e-03 0.0000000000000000e+00  1.2028675375369586e-03 -7.2184165166933262e-03 0.0000000000000000e+00  1.2158257657135880e-03 -8.0104223830736020e-03 0.0000000000000000e+00  1.2196438566591992e-03 -8.8199000445007402e-03 0.0000000000000000e+00  1.2177697766593059e-03 -9.6661606225312505e-03 0.0000000000000000e+00  1.2078769778227419e-03 -1.0537537216917177e-02 0.0000000000000000e+00  1.1895259147902259e-03 -1.1433459066757148e-02 0.0000000000000000e+00  1.1696576129297401e-03 -1.2369494163139327e-02 0.0000000000000000e+00  1.1485475379733458e-03 -1.3311077153937549e-02 0.0000000000000000e+00  1.1156479092302252e-03 -1.4288226957051746e-02 0.0000000000000000e+00  1.0760429285643668e-03 -1.5279659454168301e-02 0.0000000000000000e+00  1.0311135897774608e-03 -1.6297219360372494e-02 0.0000000000000000e+00  9.8003648297013989e-04 -1.7333340936596872e-02 0.0000000000000000e+00  9.2177968674373974e-04 -1.8386828960167922e-02 0.0000000000000000e+00  8.6141817461779545e-04 -1.9468697627367800e-02 0.0000000000000000e+00  7.9999576927069604e-04 -2.0553063893459809e-02 0.0000000000000000e+00  7.2677570259870505e-04 -2.1661870529669683e-02 0.0000000000000000e+00  6.5115772000416000e-04 -2.2789642039435683e-02 0.0000000000000000e+00  5.7410072880696543e-04 -2.3921649314806281e-02 0.0000000000000000e+00  4.8755647790032884e-04 -2.5074665466672547e-02 0.0000000000000000e+00  4.0243695974828274e-04 -2.6237905295902909e-02 0.0000000000000000e+00  3.0888896625690186e-04 -2.7413139398095976e-02 0.0000000000000000e+00  2.1552218834961580e-04 -2.8602036024692488e-02 0.0000000000000000e+00  1.1569439991334085e-04 -2.9798577243639681e-02 0.0000000000000000e+00  1.2214247236681627e-05 -3.1006747443514681e-02 0.0000000000000000e+00  -9.2788378014084505e-05 -3.2222950993769366e-02 0.0000000000000000e+00  -2.0037341608692997e-04 -3.3448336848493264e-02 0.0000000000000000e+00  -3.1258255620363105e-04 -3.4681744934200176e-02 0.0000000000000000e+00  -4.2586927536347714e-04 -3.5921718096466014e-02 0.0000000000000000e+00  -5.4151343162336452e-04 -3.7169301054808306e-02 0.0000000000000000e+00  -6.6087929279277631e-04 -3.8423255439157360e-02 0.0000000000000000e+00  -7.8150761630516930e-04 -3.9682330747958704e-02 0.0000000000000000e+00  -9.0405059038572793e-04 -4.0947353018749952e-02 0.0000000000000000e+00  -1.0294148991781651e-03 -4.2216883933636623e-02 0.0000000000000000e+00  -1.1558352430883362e-03 -4.3490269744152335e-02 0.0000000000000000e+00  -1.2837574956835831e-03 -4.4768040704262269e-02 0.0000000000000000e+00  -1.4138514955617449e-03 -4.6049140355817197e-02 0.0000000000000000e+00  -1.5447996279991584e-03 -4.7332977754317919e-02 0.0000000000000000e+00  -1.6769476595274338e-03 -4.8619941044492403e-02 0.0000000000000000e+00  -1.8107234209750133e-03 -4.9909175947289323e-02 0.0000000000000000e+00  -1.9450673252516674e-03 -5.1200334655766719e-02 0.0000000000000000e+00  -2.0803516353848864e-03 -5.2493516957845897e-02 0.0000000000000000e+00  -2.2166747838171879e-03 -5.3788181385599418e-02 0.0000000000000000e+00  -2.3538722331803942e-03 -5.5083933472984049e-02 0.0000000000000000e+00  -2.4918887070816040e-03 -5.6380941289400417e-02 0.0000000000000000e+00  -2.6303781612907616e-03 -5.7678958866192814e-02 0.0000000000000000e+00  -2.7690924232308565e-03 -5.8977099447692707e-02 0.0000000000000000e+00  -2.9085330570681298e-03 -6.0276182631922783e-02 0.0000000000000000e+00  -3.0481235166216797e-03 -6.1575582748891688e-02 0.0000000000000000e+00  -3.1881758082703575e-03 -6.2875201765203032e-02 0.0000000000000000e+00  -3.3285636949607136e-03 -6.4175097643982160e-02 0.0000000000000000e+00  -3.4690929870041282e-03 -6.5474986647001437e-02 0.0000000000000000e+00  -3.6098619400391158e-03 -6.6774922861994560e-02 0.0000000000000000e+00  -3.7507736621550970e-03 -6.8074867017272195e-02 0.0000000000000000e+00  -3.8917402323998033e-03 -6.9374697691149165e-02 0.0000000000000000e+00  -9.1500178970188167e-03 -6.8803795545307370e-02 0.0000000000000000e+00  -9.0089407906030535e-03 -6.7503843536404637e-02 0.0000000000000000e+00  -8.8678303259744351e-03 -6.6203837719693431e-02 0.0000000000000000e+00  -8.7266674147096056e-03 -6.4903822392502711e-02 0.0000000000000000e+00  -8.5854476908569701e-03 -6.3603901333502036e-02 0.0000000000000000e+00  -8.4441242955939442e-03 -6.2304038451825722e-02 0.0000000000000000e+00  -8.3026703875149210e-03 -6.1004514968353150e-02 0.0000000000000000e+00  -8.1609353427388957e-03 -5.9705361645189539e-02 0.0000000000000000e+00  -8.0191954622290031e-03 -5.8406545026082050e-02 0.0000000000000000e+00  -7.8771984186333018e-03 -5.7108601747577314e-02 0.0000000000000000e+00  -7.7349846642354161e-03 -5.5811175565613963e-02 0.0000000000000000e+00  -7.5928208919329322e-03 -5.4514965680454101e-02 0.0000000000000000e+00  -7.4502646211699036e-03 -5.3220379335372131e-02 0.0000000000000000e+00  -7.3072855703068479e-03 -5.1926206062886622e-02 0.0000000000000000e+00  -7.1645362214847819e-03 -5.0634328154055670e-02 0.0000000000000000e+00  -7.0212371939662767e-03 -4.9345220908702185e-02 0.0000000000000000e+00  -6.8774379933966160e-03 -4.8056850344214710e-02 0.0000000000000000e+00  -6.7342860292719303e-03 -4.6772049591413171e-02 0.0000000000000000e+00  -6.5904275260100240e-03 -4.5491231109383370e-02 0.0000000000000000e+00  -6.4459402861670621e-03 -4.4211488395231299e-02 0.0000000000000000e+00  -6.3025533649084305e-03 -4.2936871211307681e-02 0.0000000000000000e+00  -6.1583294387802141e-03 -4.1667781781551158e-02 0.0000000000000000e+00  -6.0133454941232751e-03 -4.0400171855659757e-02 0.0000000000000000e+00  -5.8700479500538539e-03 -3.9139514600897519e-02 0.0000000000000000e+00  -5.7257468878775149e-03 -3.7886353986407509e-02 0.0000000000000000e+00  -5.5807522004064653e-03 -3.6635985055593158e-02 0.0000000000000000e+00  -5.4370514145479793e-03 -3.5393374644445239e-02 0.0000000000000000e+00  -5.2927489400476568e-03 -3.4160988705552640e-02 0.0000000000000000e+00  -5.1481443840641445e-03 -3.2930544727800680e-02 0.0000000000000000e+00  -5.0071402566757954e-03 -3.1711447093551746e-02 0.0000000000000000e+00  -4.8638304055599836e-03 -3.0505749947368471e-02 0.0000000000000000e+00  -4.7194975596655106e-03 -2.9303296792891644e-02 0.0000000000000000e+00  -4.5777705981142587e-03 -2.8115341787171230e-02 0.0000000000000000e+00  -4.4375723430303982e-03 -2.6934986119784638e-02 0.0000000000000000e+00  -4.2978032264174258e-03 -2.5767317222330086e-02 0.0000000000000000e+00  -4.1605073649473500e-03 -2.4615669706582556e-02 0.0000000000000000e+00  -4.0201975227023698e-03 -2.3472992840808404e-02 0.0000000000000000e+00  -3.8835249420616962e-03 -2.2346825355136716e-02 0.0000000000000000e+00  -3.7453414948121202e-03 -2.1234981973641296e-02 0.0000000000000000e+00  -3.6070891972972748e-03 -2.0140117527628128e-02 0.0000000000000000e+00  -3.4713208490353229e-03 -1.9063500997695881e-02 0.0000000000000000e+00  -3.3403422088437644e-03 -1.8000542067326732e-02 0.0000000000000000e+00  -3.2117063113709229e-03 -1.6958575596412079e-02 0.0000000000000000e+00  -3.0752185287523104e-03 -1.5932569771641439e-02 0.0000000000000000e+00  -2.9485021756197019e-03 -1.4930359897553076e-02 0.0000000000000000e+00  -2.8152216643399170e-03 -1.3953095218241495e-02 0.0000000000000000e+00  -2.6906009158644260e-03 -1.2993626879700860e-02 0.0000000000000000e+00  -2.5651016391758795e-03 -1.2063836311219052e-02 0.0000000000000000e+00  -2.4452238875513764e-03 -1.1151973369780263e-02 0.0000000000000000e+00  -2.3284134165692271e-03 -1.0269639619834882e-02 0.0000000000000000e+00  -2.2006328645369343e-03 -9.4087289142618311e-03 0.0000000000000000e+00  -2.0859111165810614e-03 -8.5790513120252657e-03 0.0000000000000000e+00  -1.9608302207559632e-03 -7.7838733036179990e-03 0.0000000000000000e+00  -1.8510424212434655e-03 -7.0149999222899597e-03 0.0000000000000000e+00  -1.7389259864595656e-03 -6.2918722943190054e-03 0.0000000000000000e+00  -1.6232425307076102e-03 -5.5793577045839191e-03 0.0000000000000000e+00  -1.5160421205840267e-03 -4.9169074625470240e-03 0.0000000000000000e+00  -1.3933864645002498e-03 -4.2883806839506666e-03 0.0000000000000000e+00  -1.2879536905725198e-03 -3.6941534995390511e-03 0.0000000000000000e+00  -1.1795351545193220e-03 -3.1506246323481802e-03 0.0000000000000000e+00  -1.0760997261663535e-03 -2.6356468234782857e-03 0.0000000000000000e+00  -9.7520943641702523e-04 -2.1703510845980083e-03 0.0000000000000000e+00  -8.5944088443067035e-04 -1.7390595436643991e-03 0.0000000000000000e+00  -7.6226866014669022e-04 -1.3547817384413033e-03 0.0000000000000000e+00  -6.4694964731500429e-04 -1.0166127960088967e-03 0.0000000000000000e+00  -5.4562204719912411e-04 -7.3488941535250929e-04 0.0000000000000000e+00  -4.2846838795371320e-04 -5.0104264105696461e-04 0.0000000000000000e+00  -3.2174634692901544e-04 -3.0391084263833840e-04 0.0000000000000000e+00  -2.1557551135655334e-04 -1.6532450395199982e-04 0.0000000000000000e+00  -1.0737893099507048e-04 -9.3484955416914435e-05 0.0000000000000000e+00  -7.9764634786180007e-03 -7.0246402774815669e-02 0.0000000000000000e+00  -5.3473437390311514e-03 -7.0531799203687920e-02 0.0000000000000000e+00  1.2405223931690625e-05 -9.2505159739499483e-05 0.0000000000000000e+00  -5.0432186309891424e-03 -5.5446162872182216e-02 0.0000000000000000e+00  -5.7640445588619882e-03 -6.2036964768982288e-02 0.0000000000000000e+00  2.8127132625441035e-05 -8.9500028073571448e-04 0.0000000000000000e+00  -4.2432646489460211e-03 -4.7783894487049026e-02 0.0000000000000000e+00  -4.6596387215685642e-03 -5.1653838916528881e-02 0.0000000000000000e+00  -1.2476297661521087e-04 -2.2344611358801249e-03 0.0000000000000000e+00  -6.2907314789698871e-03 -6.5847626879683735e-02 0.0000000000000000e+00  -1.3893683276872102e-04 -3.9501343987931566e-03 0.0000000000000000e+00  -2.3308082657827288e-04 -7.7032486527341534e-03 0.0000000000000000e+00  -3.8313107351430190e-03 -4.3937769974079395e-02 0.0000000000000000e+00  -5.8470551572594441e-04 -1.0811899845011909e-02 0.0000000000000000e+00  -3.4257215442387214e-03 -4.0125537226944508e-02 0.0000000000000000e+00  -8.1423818141926341e-04 -1.3719902003626154e-02 0.0000000000000000e+00  -1.1547872018786507e-03 -1.7644363277474064e-02 0.0000000000000000e+00  -3.1094952163947427e-03 -3.6256268402988671e-02 0.0000000000000000e+00  -2.6098226526207989e-03 -3.2566842059096303e-02 0.0000000000000000e+00  -1.4222865797693001e-03 -2.0793364361534870e-02 0.0000000000000000e+00  -1.7745034450739842e-03 -2.4249731856275204e-02 0.0000000000000000e+00  -2.2277235124525752e-03 -2.8785992966416780e-02 0.0000000000000000e+00  -2.0297008183377100e-04 -5.2123605826372354e-03 0.0000000000000000e+00  -5.4786799775255399e-03 -5.9452469280348558e-02 0.0000000000000000e+00  -2.0050255649643411e-03 -2.6242301131045448e-02 0.0000000000000000e+00  -4.5077107637581619e-04 -9.3115891662569200e-03 0.0000000000000000e+00  -9.6804652770768123e-04 -1.5863227086471664e-02 0.0000000000000000e+00  -3.5791534149195540e-05 -1.5214596231978344e-03 0.0000000000000000e+00  -6.8700024830417863e-03 -6.8004775564780545e-02 0.0000000000000000e+00  5.9806013456222352e-05 -4.0023135863713407e-04 0.0000000000000000e+00  -2.2405263188221541e-03 -3.4468856397658724e-02 0.0000000000000000e+00  -3.0158792390647454e-03 -4.1997704560899379e-02 0.0000000000000000e+00  -3.4190784444010996e-03 -4.5828266339969073e-02 0.0000000000000000e+00  -1.7875058881900822e-03 -1.9195607396666509e-02 0.0000000000000000e+00  -2.6220070142888461e-03 -3.8206662722870599e-02 0.0000000000000000e+00  -3.8293066149738242e-03 -4.9687408713143061e-02 0.0000000000000000e+00  -1.8752809976739730e-03 -3.0799080691696956e-02 0.0000000000000000e+00  -4.2445629091989812e-03 -5.3566111045363324e-02 0.0000000000000000e+00  -2.1199065267120125e-03 -2.2498634839598759e-02 0.0000000000000000e+00  -1.1124271187094319e-03 -1.2146792093986074e-02 0.0000000000000000e+00  -3.3806540639077647e-04 -3.1372947061258085e-03 0.0000000000000000e+00  -6.5483007878639529e-03 -6.3824946537664157e-02 0.0000000000000000e+00  -6.0037975619202967e-03 -5.7283914228587335e-02 0.0000000000000000e+00  1.4208239137281174e-04 -6.3735749878024838e-03 0.0000000000000000e+00  -4.1856733009143793e-03 -5.6939286301086856e-02 0.0000000000000000e+00  -8.6347647617812640e-04 -6.6208280821019524e-03 0.0000000000000000e+00  -5.9092657897493236e-03 -5.3966254254267931e-02 0.0000000000000000e+00  -5.4865502286122044e-03 -5.0086456204383567e-02 0.0000000000000000e+00  -5.0653715462477570e-03 -4.6225715483666885e-02 0.0000000000000000e+00  -5.0009112719190977e-03 -6.4575893354905892e-02 0.0000000000000000e+00  3.1829266914542269e-04 -2.9366619607361301e-03 0.0000000000000000e+00  -4.2323591161268657e-03 -3.8599053632751137e-02 0.0000000000000000e+00  -4.6467953035073516e-03 -4.2392906966000898e-02 0.0000000000000000e+00  -4.2263354836203352e-04 -1.8844125715814713e-02 0.0000000000000000e+00  5.6875633901953403e-05 -1.1831045661342833e-02 0.0000000000000000e+00  -3.7068222365131990e-03 -3.3764271452489135e-02 0.0000000000000000e+00  -3.4236970318807570e-03 -3.1182514027739524e-02 0.0000000000000000e+00  -6.8926843643395510e-04 -2.2135848950248005e-02 0.0000000000000000e+00  -4.6573539066647789e-05 -4.0058966310590533e-05 0.0000000000000000e+00  3.5321973504403151e-05 -3.1258274664008603e-05 0.0000000000000000e+00  -1.2312003280298839e-03 -2.7942265360383849e-02 0.0000000000000000e+00  -1.6323064567479223e-03 -1.4433647068607561e-02 0.0000000000000000e+00  -1.0441785545697013e-03 -8.2414678569518382e-03 0.0000000000000000e+00  -2.9315002885972120e-04 -1.1544357151186857e-03 0.0000000000000000e+00  -3.8223352743206395e-04 -1.9406449866815158e-03 0.0000000000000000e+00  -9.6945911628175277e-04 -2.5541655678698452e-02 0.0000000000000000e+00  -1.2000372829798955e-03 -9.8505574941094472e-03 0.0000000000000000e+00  -1.8774046494825973e-03 -1.6494470776673723e-02 0.0000000000000000e+00  -6.7041638336940140e-04 -4.7130948392927127e-03 0.0000000000000000e+00  -4.5898526759005206e-03 -6.0546249287879446e-02 0.0000000000000000e+00  -6.6218190604215707e-03 -6.0401591213693859e-02 0.0000000000000000e+00  3.1556569187336043e-04 -4.7174284876828308e-03 0.0000000000000000e+00  -2.0817070816570325e-04 -5.5339945933021741e-04 0.0000000000000000e+00  -5.0580305901851575e-03 -6.7185025211817864e-02 0.0000000000000000e+00  -3.2092177035458816e-03 -2.7711171773402998e-02 0.0000000000000000e+00  -2.8463737344590831e-03 -2.5272583022221122e-02 0.0000000000000000e+00  3.7630617520515873e-04 -8.2852742868383851e-03 0.0000000000000000e+00  2.9599283918735103e-04 -1.1483402948867412e-03 0.0000000000000000e+00  3.6482901078275978e-04 -1.9885276278951030e-03 0.0000000000000000e+00  1.4999267753289192e-05 -1.4604241153162691e-02 0.0000000000000000e+00  3.7887018775872248e-04 -9.9365873088837400e-03 0.0000000000000000e+00  1.3209570381520349e-05 -1.6618385406780626e-02 0.0000000000000000e+00  -1.3092688083773564e-04 -2.9028835872954632e-04 0.0000000000000000e+00  -5.4374012924917822e-03 -6.9012290033648671e-02 0.0000000000000000e+00  -5.8691335406103971e-03 -5.2427591860982836e-02 0.0000000000000000e+00  -5.4465312127808998e-03 -4.8554553879975114e-02 0.0000000000000000e+00  3.7266478444209476e-04 -3.5866259271171985e-03 0.0000000000000000e+00  -5.0255474838335288e-03 -4.4703875998363944e-02 0.0000000000000000e+00  -4.7114954224351472e-03 -6.3061360399759070e-02 0.0000000000000000e+00  -4.6074189312752256e-03 -4.0885272452533421e-02 0.0000000000000000e+00  -4.1959090715132140e-03 -3.7121387223938311e-02 0.0000000000000000e+00  8.0558920139262401e-05 -1.2942830197646504e-02 0.0000000000000000e+00  -3.9839334228737944e-03 -3.5195415795431881e-02 0.0000000000000000e+00  -4.2161164055110528e-04 -2.0129054324598085e-02 0.0000000000000000e+00  -3.3915523944620684e-03 -2.9749999308613054e-02 0.0000000000000000e+00  -6.9466093165728761e-04 -2.3476804708548720e-02 0.0000000000000000e+00  -7.4094853054090535e-03 -6.6717921677955011e-02 0.0000000000000000e+00  -4.1922977130412088e-03 -5.8464044042449509e-02 0.0000000000000000e+00  -8.6445027609918399e-04 -5.7785689830464684e-03 0.0000000000000000e+00  2.3266498771196072e-04 -6.0442399048152827e-04 0.0000000000000000e+00  1.2404790319226714e-04 -2.3281525251916176e-04 0.0000000000000000e+00  -1.5271191666810712e-03 -3.3341891681478962e-02 0.0000000000000000e+00  -2.7426240275215609e-03 -2.3511455766047830e-02 0.0000000000000000e+00  -1.8925348549768163e-03 -3.7061082779820120e-02 0.0000000000000000e+00  -3.0966191601478868e-03 -4.8502915626597060e-02 0.0000000000000000e+00  -2.2985879540588583e-03 -4.0831396818537459e-02 0.0000000000000000e+00  -2.6928890477955969e-03 -4.4651341692901483e-02 0.0000000000000000e+00  -2.2513576789409025e-03 -2.0255043967079361e-02 0.0000000000000000e+00  -1.2235172959261477e-03 -2.9717810048474319e-02 0.0000000000000000e+00  -1.6134732819102979e-03 -1.3006844687597439e-02 0.0000000000000000e+00  -2.1969089526647874e-03 -1.8121865263747372e-02 0.0000000000000000e+00  -3.7498974942168362e-03 -5.4887235350295459e-02 0.0000000000000000e+00  -1.4668409935862461e-03 -1.1232725914640661e-02 0.0000000000000000e+00  -3.6848138791911425e-03 -5.2308496100776244e-02 0.0000000000000000e+00  -6.3451001185177414e-04 -3.6496299609866411e-03 0.0000000000000000e+00  -5.3939312576965597e-04 -2.6313752565790506e-03 0.0000000000000000e+00  -7.2533307414226816e-03 -6.4916595446317726e-02 0.0000000000000000e+00  -7.0435751443620334e-03 -6.2499917226916647e-02 0.0000000000000000e+00  -3.2205950320078817e-03 -4.7209632241194593e-02 0.0000000000000000e+00  -2.8174399162138848e-03 -4.3367469627504665e-02 0.0000000000000000e+00  -1.9729285385504300e-03 -3.5764085567165226e-02 0.0000000000000000e+00  -3.5650084533105490e-03 -5.1044591605772668e-02 0.0000000000000000e+00  -2.4238036536803876e-03 -3.9560641854662876e-02 0.0000000000000000e+00  -1.5889424370698374e-03 -3.2073237636727654e-02 0.0000000000000000e+00  -2.3511188048940417e-03 -2.1329542039462426e-02 0.0000000000000000e+00  4.1860598028625956e-04 -5.7141788869025404e-03 0.0000000000000000e+00  -6.6179537929776456e-03 -5.8468374101816566e-02 0.0000000000000000e+00  -6.3117808246039679e-03 -5.6006598850831549e-02 0.0000000000000000e+00  3.7676355663559