<?xml version="1.0"?>
<VTKFile type="UnstructuredGrid"  version="0.1"  >
<UnstructuredGrid>
<Piece  NumberOfPoints="439" NumberOfCells="725">
<Points>
<DataArray  type="Float64"  NumberOfComponents="3"  format="ascii">0.5959128089204171 0.1459670631127196 0  0.5992646922100158 0.1657436659767486 0  0.2489897949 0.21 0  0.2489897949 0.19 0  0.5975887854049329 0.1558553785986976 0  0.2496355385699469 0.2060260530378829 0  0.249959460510575 0.2020130349814059 0  0.2499594605105767 0.1979869650186357 0  0.24963553856995 0.1939739469621422 0  0.2539968804616335 0.2099448483506733 0  0.2590095639247309 0.2098857492015428 0  0.264021396502951 0.2098109580844703 0  0.2690293220345388 0.2096867347460664 0  0.2740333627241199 0.2095362475620312 0  0.2790393250331323 0.2093483448929792 0  0.284038365606114 0.2091414262181547 0  0.2890310010417704 0.2089004154852503 0  0.2940234200384569 0.2086330370306467 0  0.299011348242003 0.2083392811686305 0  0.3040011315978365 0.2080104899320553 0  0.3089900572740386 0.2076763937055384 0  0.313969606949097 0.2073027603173971 0  0.3189563991231243 0.2069087095033013 0  0.3239312491153918 0.2064953607740276 0  0.328906715393366 0.2060542974463205 0  0.333878378035755 0.2055972943231868 0  0.3388464916457185 0.2051132360379515 0  0.3438096993720223 0.2046181631050188 0  0.3487709321771537 0.2041002072585335 0  0.3537282932119797 0.2035664743120327 0  0.3586815079774204 0.2030171854858815 0  0.3636355938995268 0.2024428572157289 0  0.3685892268457376 0.2018650015361032 0  0.3735371467996114 0.2012643871085446 0  0.3784815579933787 0.2006544492434106 0  0.3834238970856134 0.2000277412131642 0  0.3883632751735933 0.1993889667260207 0  0.3932989573178181 0.1987387151496975 0  0.398234709230893 0.1980700687271066 0  0.4031699887059427 0.1973997048074981 0  0.4080988656394315 0.196712886718377 0  0.4130271400489948 0.196013416810093 0  0.4179547462207996 0.1953110225405991 0  0.4228771572222409 0.1945941982311173 0  0.427801079531284 0.1938705191496966 0  0.4327199682421775 0.1931382490598345 0  0.4376397206597217 0.1923966170250646 0  0.4425554458401585 0.1916493436323388 0  0.4474692168852611 0.1908937551829095 0  0.4523823550506669 0.19013237526675 0  0.4572941752192732 0.1893642997445309 0  0.4622030758725371 0.1885902180298537 0  0.4671115277714111 0.1878112194125558 0  0.4720186565890827 0.1870264811743801 0  0.4769233163962897 0.1862368101513031 0  0.4818272777002152 0.1854431402893822 0  0.4867300851824652 0.1846448161567865 0  0.4916309081620791 0.1838428495023317 0  0.496531078556682 0.1830377388275084 0  0.501430268500025 0.1822290514663155 0  0.5063278393813962 0.1814175612052118 0  0.5112248250489306 0.1806037292437843 0  0.5161209559325738 0.1797872315494462 0  0.5210157944584326 0.1789687300035555 0  0.5259102156138195 0.1781485044189844 0  0.5308039038766627 0.1773264620327314 0  0.5356967360407875 0.176503040092299 0  0.5405888246678461 0.1756785981346344 0  0.5454801984326477 0.1748529550772397 0  0.550371159442717 0.1740263189941763 0  0.5552619264050811 0.1731995402895626 0  0.5601520304595182 0.1723718263335496 0  0.5650420041063938 0.1715437643886494 0  0.5699315308880695 0.170715464979989 0  0.574820746679101 0.1698868540493152 0  0.5797098264927999 0.1690582414026784 0  0.5845986765596126 0.1682295544563315 0  0.5894874028797542 0.167400846582294 0  0.5943760808442475 0.1665722478162171 0  0.5910242273639543 0.1467956830927346 0  0.5861356615554508 0.1476243424979154 0  0.5812471416235315 0.1484530545211671 0  0.5763586977453863 0.1492817491206544 0  0.5714703264664619 0.1501103251683388 0  0.566582065371146 0.1509388260895622 0  0.5616939325995081 0.1517669599760038 0  0.5568060699406652 0.1525947035681201 0  0.5519181960695299 0.1534220969259079 0  0.5470305477077803 0.1542486314794772 0  0.5421430784739588 0.1550746615896954 0  0.5372555310582109 0.1558995387345598 0  0.5323683062623313 0.1567229189944231 0  0.5274814333627894 0.1575459235636868 0  0.5225943089738311 0.1583668646213987 0  0.5177076297234752 0.1591853993974681 0  0.5128213444700193 0.1600033086664672 0  0.5079344736390657 0.1608181638146786 0  0.5030481762269116 0.1616297331160955 0  0.4981623561386411 0.1624404390832168 0  0.4932756398488415 0.1632469535409657 0  0.4883896199005688 0.1640491164765825 0  0.4835041618106398 0.1648501497475063 0  0.4786174481178493 0.1656457241792294 0  0.4737316021670293 0.1664356532609058 0  0.4688462858782508 0.1672235386372499 0  0.4639601002406958 0.1680055378780344 0  0.4590745783009673 0.1687801281316327 0  0.4541892255359272 0.169553293990629 0  0.4493015562445438 0.1703181666603951 0  0.4444158826911172 0.1710736487625739 0  0.4395309530401867 0.1718269504572802 0  0.4346446090072341 0.1725699976054328 0  0.4297574115876505 0.1733077996194999 0  0.424870292241334 0.1740368896498031 0  0.4199820517676029 0.1747550984078859 0  0.4150960680675581 0.1754673974205399 0  0.4102082764129477 0.1761685444164566 0  0.4053219556796623 0.1768603302659067 0  0.4004362454500551 0.1775409843346124 0  0.3955495642759339 0.1782096884164101 0  0.3906602623933187 0.1788693163826785 0  0.3857702695718984 0.1795153374145894 0  0.3808858315142502 0.1801514577739918 0  0.3759960902052482 0.1807720681992118 0  0.3711114082775398 0.1813771466599865 0  0.366221938300546 0.1819706399469445 0  0.3613341720741323 0.1825455747062348 0  0.3564435282514307 0.1831090196675657 0  0.3515520994789701 0.1836539293813108 0  0.346668181674029 0.1841859213777992 0  0.3417773502113559 0.1846980757545455 0  0.3368940864291948 0.185189279463121 0  0.3320023656608477 0.1856636740322634 0  0.32711364075218 0.1861100007810226 0  0.3222274113309721 0.186549864744548 0  0.3173376405391318 0.1869586710560668 0  0.3124582736982635 0.1873471026061615 0  0.3075694586760151 0.1877139287935533 0  0.3026838955172562 0.1880497344463509 0  0.2977960486893917 0.1883677892679494 0  0.2929078820674546 0.1886552989829482 0  0.288029499113603 0.1889221745139362 0  0.2831408457511102 0.1891597576462629 0  0.2782640694089086 0.1893692746889312 0  0.2733797396233209 0.1895438335004367 0  0.2685057519196806 0.1896890417145631 0  0.2636258698770665 0.1898113307651742 0  0.2587461924362768 0.1898974286276953 0  0.2538681743343693 0.1899423260608321 0  0.5967508272542056 0.1509112163731035 0  0.5984267297851247 0.1607995275521378 0  0.258981921240567 0.200495011617178 0  0.5413670509048062 0.1653779035530929 0  0.5661779336873352 0.1611497870239012 0  0.2774755999671885 0.2002433697030662 0  0.5123721010275124 0.1701494942042338 0  0.5270438656171996 0.1676918988386599 0  0.2944561881573717 0.1979169993281528 0  0.5804825758444817 0.1582902278614047 0  0.3103742818163268 0.1975444366610614 0  0.3369728368499699 0.1961023969533959 0  0.4976969277616516 0.1725866921218943 0  0.3551056067646472 0.1933595741636393 0  0.4830173172551604 0.1749962037343101 0  0.3704881597962278 0.1915828028293437 0  0.3895269729478071 0.1891447660449868 0  0.4679093150315157 0.1770714318234211 0  0.453293009305261 0.1798503103024458 0  0.403908616414954 0.1872923246742375 0  0.4189800487998543 0.1850465145782417 0  0.4379722104220689 0.1822031747693568 0  0.3201907261860907 0.1968085146951645 0  0.5564562609468883 0.1628175891936059 0  0.4274063951617385 0.1836532458603563 0  0.3466389335538519 0.1944337717351264 0  0.3810814009801704 0.190397603104228 0  0.2860598195663894 0.1991056592631055 0  0.5885161844892908 0.1556078865910168 0  0.2680289649251142 0.2014285279013219 0  0.460991767487258 0.1809222490177697 0  0.4903755383851977 0.176178146778746 0  0.5050574560818247 0.1737539573648701 0  0.3965919850537035 0.1859215725015692 0  0.4756874224242363 0.1785706603111212 0  0.5197342553821823 0.1713058094023812 0  0.4462869466124722 0.1832233661322173 0  0.5344070553773169 0.1688404462286126 0  0.4113038532864177 0.1838714540304499 0  0.3622277660270004 0.1902778268848774 0  0.3031987268024696 0.1958190570682424 0  0.5727687309832751 0.1577736685614231 0  0.5481206193186487 0.1613160550460589 0  0.3283692390077245 0.1989659774235077 0  0.5472217297491078 0.168294619073203 0  0.3297996638604823 0.1920841433102339 0  0.5355543189594856 0.1624174224964584 0  0.5208880386981809 0.1648838733246434 0  0.5062203757889849 0.1673336139545511 0  0.5759608302211541 0.163463229316171 0  0.3014076760505776 0.20207598090272 0  0.4768783594521182 0.1721554223157676 0  0.4915507283607044 0.169760046936179 0  0.3952348793735792 0.192298253726964 0  0.3607482642078563 0.1966233025741915 0  0.4578651363677176 0.1751975877859329 0  0.447522558437092 0.1768170941257855 0  0.4099891740318783 0.1902584808198038 0  0.2557581995493179 0.1960608525009544 0  0.2550368968615286 0.2034231248095145 0  0.4346700766813191 0.1865425975051153 0  0.3739010762426111 0.1873363438536109 0  0.34011228206649 0.1909735839113671 0  0.2811298176894668 0.1953339672648087 0  0.2910524886513759 0.1948849037555672 0  0.4246339147487709 0.1882197631222703 0  0.3495871868276432 0.189983024233822 0  0.3839332275287248 0.1858821759990358 0  0.316280828537823 0.1932573911799132 0  0.5607984800753815 0.1659378204480525 0  0.5597923601792546 0.1582702898726298 0  0.3164922859152244 0.2009791159722074 0  0.2709650511743971 0.1956273070348394 0  0.5858234049639919 0.1626538461057837 0  0.4332986678537158 0.1783243466121075 0  0.4231211034101151 0.1802592874418826 0  0.3406145214684648 0.1997225223335149 0  0.2810596700603246 0.2040702211261701 0  0.2916503676628229 0.2035630352445164 0  0.3750540226124893 0.195579367863799 0  0.350317583124529 0.1990923181743837 0  0.3848607245798535 0.1949808547720401 0  0.2647362375049531 0.1960292728035439 0  0.5926542364069205 0.1608029680903035 0  0.5297153010768493 0.1629119379410912 0  0.5150489014340933 0.1653723786182054 0  0.3072618615374771 0.202150831748459 0  0.5003811297757054 0.1678136207064123 0  0.5702931898364604 0.1649039484829506 0  0.4857113154160524 0.1702286105502787 0  0.4710813145231341 0.172598121359595 0  0.366612523117473 0.1964340068064027
[...]
<PointData  Vectors="f_20-1"> 
<DataArray  type="Float64"  Name="f_20-1"  NumberOfComponents="3" format="ascii">-4.0871910795828772e-03 -4.4032936887280293e-02 0.0000000000000000e+00  -7.3530778998402322e-04 -4.4256334023251451e-02 0.0000000000000000e+00  0.0000000000000000e+00 0.0000000000000000e+00 0.0000000000000000e+00  0.0000000000000000e+00 0.0000000000000000e+00 0.0000000000000000e+00  -2.4112145950670066e-03 -4.4144621401302424e-02 0.0000000000000000e+00  0.0000000000000000e+00 0.0000000000000000e+00 0.0000000000000000e+00  0.0000000000000000e+00 0.0000000000000000e+00 0.0000000000000000e+00  0.0000000000000000e+00 0.0000000000000000e+00 0.0000000000000000e+00  0.0000000000000000e+00 0.0000000000000000e+00 0.0000000000000000e+00  6.3279856004254298e-05 -5.5151649326738524e-05 0.0000000000000000e+00  1.3215761347666973e-04 -1.1425079845716025e-04 0.0000000000000000e+00  2.0018448605892874e-04 -1.8904191552973444e-04 0.0000000000000000e+00  2.6430431200882376e-04 -3.1326525393359617e-04 0.0000000000000000e+00  3.2453929596304670e-04 -4.6375243796880266e-04 0.0000000000000000e+00  3.8669589935703686e-04 -6.5165510702080965e-04 0.0000000000000000e+00  4.4193076672027363e-04 -8.5857378184525516e-04 0.0000000000000000e+00  4.9076049675387189e-04 -1.0995845147496915e-03 0.0000000000000000e+00  5.3937378780468011e-04 -1.3669629693533630e-03 0.0000000000000000e+00  5.8349628573230346e-04 -1.6607188313695531e-03 0.0000000000000000e+00  6.2947393593671341e-04 -1.9895100679446684e-03 0.0000000000000000e+00  6.7459390652051319e-04 -2.3236062944616133e-03 0.0000000000000000e+00  7.1033787596051193e-04 -2.6972396826029196e-03 0.0000000000000000e+00  7.5332434436944094e-04 -3.0912904966987264e-03 0.0000000000000000e+00  7.8436863101865933e-04 -3.5046392259724117e-03 0.0000000000000000e+00  8.1602920337427577e-04 -3.9457025536794709e-03 0.0000000000000000e+00  8.4388614013433314e-04 -4.4027056768132164e-03 0.0000000000000000e+00  8.6819404449014115e-04 -4.8867639620484311e-03 0.0000000000000000e+00  8.8759606516470484e-04 -5.3818368949811839e-03 0.0000000000000000e+00  9.0502316467768644e-04 -5.8997927414665176e-03 0.0000000000000000e+00  9.1857849388522533e-04 -6.4335256879672802e-03 0.0000000000000000e+00  9.2798755370769690e-04 -6.9828145141185068e-03 0.0000000000000000e+00  9.3826777019574009e-04 -7.5571427842710997e-03 0.0000000000000000e+00  9.4809501078802101e-04 -8.1349984638967674e-03 0.0000000000000000e+00  9.5220925903253021e-04 -8.7356128914554271e-03 0.0000000000000000e+00  9.5281474719101941e-04 -9.3455507565894068e-03 0.0000000000000000e+00  9.5134813380137121e-04 -9.9722587868358286e-03 0.0000000000000000e+00  9.4692051615955669e-04 -1.0611033273979305e-02 0.0000000000000000e+00  9.3879695475504693e-04 -1.1261284850302486e-02 0.0000000000000000e+00  9.3074316222243084e-04 -1.1929931272893416e-02 0.0000000000000000e+00  9.2221693164414649e-04 -1.2600295192501864e-02 0.0000000000000000e+00  9.0728815952070829e-04 -1.3287113281623023e-02 0.0000000000000000e+00  8.9175686346378632e-04 -1.3986583189906919e-02 0.0000000000000000e+00  8.7555732964790934e-04 -1.4688977459400872e-02 0.0000000000000000e+00  8.5416262547724562e-04 -1.5405801768882631e-02 0.0000000000000000e+00  8.3427922889226056e-04 -1.6129480850303368e-02 0.0000000000000000e+00  8.0936223415222516e-04 -1.6861750940165530e-02 0.0000000000000000e+00  7.8530894604438440e-04 -1.7603382974935342e-02 0.0000000000000000e+00  7.5722842082562379e-04 -1.8350656367661217e-02 0.0000000000000000e+00  7.2719376026445816e-04 -1.9106244817090497e-02 0.0000000000000000e+00  6.9652622002235607e-04 -1.9867624733249972e-02 0.0000000000000000e+00  6.6454068298675746e-04 -2.0635700255469045e-02 0.0000000000000000e+00  6.2963563062104857e-04 -2.1409781970146251e-02 0.0000000000000000e+00  5.9428182384456049e-04 -2.2188780587444161e-02 0.0000000000000000e+00  5.5760493588304571e-04 -2.2973518825619821e-02 0.0000000000000000e+00  5.1845903742296195e-04 -2.3763189848696881e-02 0.0000000000000000e+00  4.7861463570182862e-04 -2.4556859710617805e-02 0.0000000000000000e+00  4.3761641228918353e-04 -2.5355183843213523e-02 0.0000000000000000e+00  3.9463368627246450e-04 -2.6157150497668254e-02 0.0000000000000000e+00  3.5099837522101674e-04 -2.6962261172491633e-02 0.0000000000000000e+00  3.0638261293526142e-04 -2.7770948533684500e-02 0.0000000000000000e+00  2.6014778864692903e-04 -2.8582438794788188e-02 0.0000000000000000e+00  2.1332775054341122e-04 -2.9396270756215710e-02 0.0000000000000000e+00  1.6565292857027042e-04 -3.0212768450553810e-02 0.0000000000000000e+00  1.1668574879116495e-04 -3.1031269996444448e-02 0.0000000000000000e+00  6.7301198519375863e-05 -3.1851495581015618e-02 0.0000000000000000e+00  1.7183755723582669e-05 -3.2673537967268546e-02 0.0000000000000000e+00  -3.3789785811209788e-05 -3.3496959907700970e-02 0.0000000000000000e+00  -8.5506864390674249e-05 -3.4321401865365551e-02 0.0000000000000000e+00  -1.3793880520500642e-04 -3.5147044922760218e-02 0.0000000000000000e+00  -1.9078350077386753e-04 -3.5973681005823634e-02 0.0000000000000000e+00  -2.4382224406448424e-04 -3.6800459710437397e-02 0.0000000000000000e+00  -2.9752389527011927e-04 -3.7628173666450451e-02 0.0000000000000000e+00  -3.5135595405412008e-04 -3.8456235611350621e-02 0.0000000000000000e+00  -4.0563487804220474e-04 -3.9284535020010954e-02 0.0000000000000000e+00  -4.6022479264502185e-04 -4.0113145950684721e-02 0.0000000000000000e+00  -5.1495068458358841e-04 -4.0941758597321631e-02 0.0000000000000000e+00  -5.6990632342139179e-04 -4.1770445543668488e-02 0.0000000000000000e+00  -6.2498570892675204e-04 -4.2599153417706023e-02 0.0000000000000000e+00  -6.8011345009304398e-04 -4.3427752183782871e-02 0.0000000000000000e+00  -4.0319669304290191e-03 -4.3204316907265353e-02 0.0000000000000000e+00  -3.9767270333073094e-03 -4.2375657502084559e-02 0.0000000000000000e+00  -3.9214412595878021e-03 -4.1546945478832892e-02 0.0000000000000000e+00  -3.8660794320863343e-03 -4.0718250879345601e-02 0.0000000000000000e+00  -3.8106450053894971e-03 -3.9889674831661233e-02 0.0000000000000000e+00  -3.7551003950848294e-03 -3.9061173910437785e-02 0.0000000000000000e+00  -3.6994274611100303e-03 -3.8233040023996225e-02 0.0000000000000000e+00  -3.6434844143239074e-03 -3.7405296431879932e-02 0.0000000000000000e+00  -3.5875525798281451e-03 -3.6577903074092019e-02 0.0000000000000000e+00  -3.5313952359231396e-03 -3.5751368520522749e-02 0.0000000000000000e+00  -3.4750587641454445e-03 -3.4925338410304645e-02 0.0000000000000000e+00  -3.4188004742938542e-03 -3.4100461265440238e-02 0.0000000000000000e+00  -3.3622195645646785e-03 -3.3277081005576893e-02 0.0000000000000000e+00  -3.3052867584737098e-03 -3.2454076436313199e-02 0.0000000000000000e+00  -3.2486054418316649e-03 -3.1633135378601289e-02 0.0000000000000000e+00  -3.1914789865490935e-03 -3.0814600602531904e-02 0.0000000000000000e+00  -3.1339585344026337e-03 -2.9996691333532763e-02 0.0000000000000000e+00  -3.0770236597568511e-03 -2.9181836185321379e-02 0.0000000000000000e+00  -3.0195153663061984e-03 -2.8370266883904448e-02 0.0000000000000000e+00  -2.9615297489395433e-03 -2.7559560916783195e-02 0.0000000000000000e+00  -2.9044403331304879e-03 -2.6753046459034275e-02 0.0000000000000000e+00  -2.8466545757842242e-03 -2.5950883523417418e-02 0.0000000000000000e+00  -2.7883069600944835e-03 -2.5149850252493697e-02 0.0000000000000000e+00  -2.7312149472553558e-03 -2.4354275820770589e-02 0.0000000000000000e+00  -2.6732551924674515e-03 -2.3564346739094234e-02 0.0000000000000000e+00  -2.6147657756175040e-03 -2.2776461362750047e-02 0.0000000000000000e+00  -2.5571457075597519e-03 -2.1994462121965534e-02 0.0000000000000000e+00  -2.4988619416676299e-03 -2.1219871868367397e-02 0.0000000000000000e+00  -2.4404090010831702e-03 -2.0446706009371030e-02 0.0000000000000000e+00  -2.3842725868370106e-03 -1.9681833339604951e-02 0.0000000000000000e+00  -2.3261404346544079e-03 -1.8926351237426153e-02 0.0000000000000000e+00  -2.2672643799598823e-03 -1.8173049542719852e-02 0.0000000000000000e+00  -2.2098027072956195e-03 -1.7430002394567230e-02 0.0000000000000000e+00  -2.1531944212626448e-03 -1.6692200380500184e-02 0.0000000000000000e+00  -2.0965080619525936e-03 -1.5963110350196930e-02 0.0000000000000000e+00  -2.0409428300451949e-03 -1.5244901592114094e-02 0.0000000000000000e+00  -1.9831208244475082e-03 -1.4532602579460133e-02 0.0000000000000000e+00  -1.9271067734117344e-03 -1.3831455583543406e-02 0.0000000000000000e+00  -1.8696218010372636e-03 -1.3139669734093305e-02 0.0000000000000000e+00  -1.8115263249927683e-03 -1.2459015665387672e-02 0.0000000000000000e+00  -1.7544017934562764e-03 -1.1790311583589891e-02 0.0000000000000000e+00  -1.6998979704361046e-03 -1.1130683617321498e-02 0.0000000000000000e+00  -1.6460850862098490e-03 -1.0484662585410578e-02 0.0000000000000000e+00  -1.5867174382321670e-03 -9.8485422260081827e-03 0.0000000000000000e+00  -1.5326530415776416e-03 -9.2279318007882066e-03 0.0000000000000000e+00  -1.4735292636374189e-03 -8.6228533400135136e-03 0.0000000000000000e+00  -1.4191935349625168e-03 -8.0293600530555922e-03 0.0000000000000000e+00  -1.3631540557289816e-03 -7.4544252937652298e-03 0.0000000000000000e+00  -1.3099921727801869e-03 -6.8909803324343306e-03 0.0000000000000000e+00  -1.2576152396189012e-03 -6.3460706186892184e-03 0.0000000000000000e+00  -1.1977273389019657e-03 -5.8140786222007764e-03 0.0000000000000000e+00  -1.1447530959361003e-03 -5.3019242454545572e-03 0.0000000000000000e+00  -1.0842111724587444e-03 -4.8107205368789667e-03 0.0000000000000000e+00  -1.0321262351674239e-03 -4.3363259677366584e-03 0.0000000000000000e+00  -9.7704543819518452e-04 -3.8899992189774342e-03 0.0000000000000000e+00  -9.1946915374502497e-04 -3.4501352554519656e-03 0.0000000000000000e+00  -8.6543423992735272e-04 -3.0413289439332179e-03 0.0000000000000000e+00  -8.0099537513772263e-04 -2.6528973938384605e-03 0.0000000000000000e+00  -7.4600469174306884e-04 -2.2860712064467462e-03 0.0000000000000000e+00  -6.8776214486347383e-04 -1.9502655536491652e-03 0.0000000000000000e+00  -6.3180326708955556e-04 -1.6322107320505042e-03 0.0000000000000000e+00  -5.7616418338828600e-04 -1.3447010170517329e-03 0.0000000000000000e+00  -5.1074143158438606e-04 -1.0778254860637328e-03 0.0000000000000000e+00  -4.5558908841936352e-04 -8.4024235373707484e-04 0.0000000000000000e+00  -3.8855972496301612e-04 -6.3072531106876293e-04 0.0000000000000000e+00  -3.2908380490344726e-04 -4.5616649956328395e-04 0.0000000000000000e+00  -2.5926580290536216e-04 -3.1095828543691842e-04 0.0000000000000000e+00  -1.9534213988109999e-04 -1.8866923482576664e-04 0.0000000000000000e+00  -1.3121387503259961e-04 -1.0257137230466972e-04 0.0000000000000000e+00  -6.5426271288551174e-05 -5.7673939167857885e-05 0.0000000000000000e+00  -3.2491727457943410e-03 -4.4088783626874711e-02 0.0000000000000000e+00  -1.5732702148751397e-03 -4.4200472447835142e-02 0.0000000000000000e+00  8.4947089176938015e-06 -5.7377725662330399e-05 0.0000000000000000e+00  -1.7791834805014641e-03 -3.4622096446876069e-02 0.0000000000000000e+00  -2.0618557894809689e-03 -3.8820671556997491e-02 0.0000000000000000e+00  2.4207255386027108e-05 -5.5082223912634488e-04 0.0000000000000000e+00  -1.4774823493844140e-03 -2.9752848444858104e-02 0.0000000000000000e+00  -1.6371348765383668e-03 -3.2210443810437063e-02 0.0000000000000000e+00  -5.4707048393012135e-05 -1.3741915123858632e-03 0.0000000000000000e+00  -2.2955072940109701e-03 -4.1252752238930192e-02 0.0000000000000000e+00  -3.8557840598809171e-05 -2.4260219198363971e-03 0.0000000000000000e+00  -2.7338691885180796e-05 -4.7270642900008788e-03 0.0000000000000000e+00  -1.3212384983943377e-03 -2.7315650527195919e-02 0.0000000000000000e+00  -1.7601080625710464e-04 -6.6404258364215147e-03 0.0000000000000000e+00  -1.1694318880321865e-03 -2.4906138914774795e-02 0.0000000000000000e+00  -2.4921159432733300e-04 -8.4314348660251854e-03 0.0000000000000000e+00  -3.6128456244247597e-04 -1.0855233955095982e-02 0.0000000000000000e+00  -1.0764400177577177e-03 -2.2470240602248330e-02 0.0000000000000000e+00  -8.6472237893567316e-04 -2.0149689697464040e-02 0.0000000000000000e+00  -4.4487498687904886e-04 -1.2805332676686957e-02 0.0000000000000000e+00  -5.7104294410257554e-04 -1.4953485421863991e-02 0.0000000000000000e+00  -7.2976744238236694e-04 -1.7782587535320415e-02 0.0000000000000000e+00  -5.6548839579544133e-05 -3.2003695194754373e-03 0.0000000000000000e+00  -1.9490931611967168e-03 -3.7173526591751778e-02 0.0000000000000000e+00  -6.6031952697490808e-04 -1.6195658960467801e-02 0.0000000000000000e+00  -1.2706107269545597e-04 -5.7173234443110557e-03 0.0000000000000000e+00  -2.9123358572039364e-04 -9.7534920752240049e-03 0.0000000000000000e+00  -8.5181258203444729e-06 -9.3588530751278218e-04 0.0000000000000000e+00  -2.6061966888286086e-03 -4.2637029343857560e-02 0.0000000000000000e+00  3.9648779251638630e-05 -2.4659774540711134e-04 0.0000000000000000e+00  -5.8167275536985606e-04 -2.1328114311030620e-02 0.0000000000000000e+00  -8.6073609114772985e-04 -2.6072216550063164e-02 0.0000000000000000e+00  -1.0102355113736619e-03 -2.8496405963941672e-02 0.0000000000000000e+00  -7.1198101497395576e-04 -1.1828064169627235e-02 0.0000000000000000e+00  -7.1743493525336822e-04 -2.3679703017683885e-02 0.0000000000000000e+00  -1.1648533278629948e-03 -3.0944553926437208e-02 0.0000000000000000e+00  -4.5507651329350645e-04 -1.9026997196582743e-02 0.0000000000000000e+00  -1.3234704495679677e-03 -3.3409917100207263e-02 0.0000000000000000e+00  -8.3152989911396515e-04 -1.3878182640747699e-02 0.0000000000000000e+00  -4.6956010233486443e-04 -7.4718097863145649e-03 0.0000000000000000e+00  -1.7293085942650876e-04 -1.9305796029444823e-03 0.0000000000000000e+00  -2.5122404885477728e-03 -3.9975968109727200e-02 0.0000000000000000e+00  -2.3392366004074440e-03 -3.5812423427707796e-02 0.0000000000000000e+00  1.7646579304044009e-04 -3.9055441027328547e-03 0.0000000000000000e+00  -1.1961723006382796e-03 -3.5545702496273278e-02 0.0000000000000000e+00  -4.3506322351647602e-04 -4.0755351203152169e-03 0.0000000000000000e+00  -2.3667662643257698e-03 -3.3707759167952600e-02 0.0000000000000000e+00  -2.2016294087845003e-03 -3.1241308339762342e-02 0.0000000000000000e+00  -2.0378752011373891e-03 -2.8791567709858683e-02 0.0000000000000000e+00  -1.5107006475554097e-03 -4.0411589019417667e-02 0.0000000000000000e+00  2.2657778562273822e-04 -1.7988374328737260e-03 0.0000000000000000e+00  -1.7170573042929527e-03 -2.3969759348636408e-02 0.0000000000000000e+00  -1.8761055125626738e-03 -2.6365134728227324e-02 0.0000000000000000e+00  1.2147270181617444e-04 -1.1576564608632626e-02 0.0000000000000000e+00  2.4149747544453500e-04 -7.2515157614035791e-03 0.0000000000000000e+00  -1.5177444779969193e-03 -2.0927593878466429e-02 0.0000000000000000e+00  -1.4100240855883907e-03 -1.9308087538615161e-02 0.0000000000000000e+00  4.4350243256426511e-05 -1.3616337515795210e-02 0.0000000000000000e+00  -2.8100430879077733e-05 -2.4984524775055855e-05 0.0000000000000000e+00  2.2160830588711072e-05 -1.9518189596890473e-05 0.0000000000000000e+00  -1.3307096514977978e-04 -1.7231160259040090e-02 0.0000000000000000e+00  -7.3512536579886179e-04 -8.8898983822443978e-03 0.0000000000000000e+00  -5.1355451994040491e-04 -5.0732082826218964e-03 0.0000000000000000e+00  -1.7035042951655399e-04 -7.1282492924146972e-04 0.0000000000000000e+00  -2.1615009261343807e-04 -1.1967291093609739e-03 0.0000000000000000e+00  -3.6618833218341756e-05 -1.5733444683684109e-02 0.0000000000000000e+00  -5.7498890526977615e-04 -6.0637679603657508e-03 0.0000000000000000e+00  -8.3558814354460650e-04 -1.0164616195200152e-02 0.0000000000000000e+00  -3.5154000053304758e-04 -2.9020673834567823e-03 0.0000000000000000e+00  -1.3565210299593376e-03 -3.7843828811846648e-02 0.0000000000000000e+00  -2.6490275227224582e-03 -3.7805902488507917e-02 0.0000000000000000e+00  2.5278233191156833e-04 -2.8888397702617353e-03 0.0000000000000000e+00  -1.2366224636510849e-04 -3.4233729774441524e-04 0.0000000000000000e+00  -1.4780326763683474e-03 -4.2068941997298555e-02 0.0000000000000000e+00  -1.3692887905549693e-03 -1.7140799343143855e-02 0.0000000000000000e+00  -1.2085469976835441e-03 -1.5616410652023549e-02 0.0000000000000000e+00  3.5857038511245517e-04 -5.0715276955773936e-03 0.0000000000000000e+00  1.9117738423122979e-04 -7.0402065509553259e-04 0.0000000000000000e+00  2.4266434895074787e-04 -1.2179164625790982e-03 0.0000000000000000e+00  2.8263000199608453e-04 -8.9554861810564046e-03 0.0000000000000000e+00  3.9593423464232566e-04 -6.0830231442467143e-03 0.0000000000000000e+00  3.3243575062374378e-04 -1.0194486546595972e-02 0.0000000000000000e+00  -7.8249040552045814e-05 -1.7970149509350294e-04 0.0000000000000000e+00  -1.6705279593688784e-03 -4.3238574268614716e-02 0.0000000000000000e+00  -2.3819599687652246e-03 -3.2732571963996010e-02 0.0000000000000000e+00  -2.2169424946792936e-03 -3.0272131286880003e-02 0.0000000000000000e+00  2.6953597721130461e-04 -2.1959716387960960e-03 0.0000000000000000e+00  -2.0532970362210703e-03 -2.7830889198674089e-02 0.0000000000000000e+00  -1.3671137369747051e-03 -3.9442854904325475e-02 0.0000000000000000e+00  -1.8916942790217015e-03 -2.5415899354804476e-02 0.0000000000000000e+00  -1.7338830064922901e-03 -2.3042125531394449e-02 0.0000000000000000e+00  2.8234546471918781e-04 -7.9334480574573020e-03 0.0000000000000000e+00  -1.6525715356610533e-03 -2.1830192332284535e-02 0.0000000000000000e+00  1.5593255864317958e-04 -1.2369487706685499e-02 0.0000000000000000e+00  -1.4285009303931066e-03 -1.8414500208256294e-02 0.0000000000000000e+00  7.7291586170532851e-05 -1.4446419661559393e-02 0.0000000000000000e+00  -2.9824629836734482e-03 -4.1834632595282528e-02 0.0000000000000000e+00  -1.1597721262752521e-03 -3.6512609285063218e-02 0.0000000000000000e+00  -4.5150821616572956e-04 -3.5589496771050695e-03 0.0000000000000000e+00  1.4741767884769133e-04 -3.7100254360388879e-04 0.0000000000000000e+00  7.8023250193050232e-05 -1.4338270800255023e-04 0.0000000000000000e+00  -1.6717375695268253e-04 -2.0604455675953232e-02 0.0000000000000000e+00  -1.1905517068914778e-03 -1.4521889677012279e-02 0.0000000000000000e+00  -2.9189106954829216e-04 -2.2941647827345431e-02 0.0000000000000000e+00  -7.3404880616057130e-04 -3.0176375046463626e-02 0.0000000000000000e+00  -4.4188550593346449e-04 -2.5319369032816275e-02 0.0000000000000000e+00  -5.8463777896011738e-04 -2.7734760841591054e-02 0.0000000000000000e+00  -9.7125133535948705e-04 -1.2494263744685655e-02 0.0000000000000000e+00  -7.8952500177611391e-05 -1.8335825396160865e-02 0.0000000000000000e+00  -7.5734829961050592e-04 -8.0119455436472049e-03 0.0000000000000000e+00  -9.9182082867234670e-04 -1.1175995154521168e-02 0.0000000000000000e+00  -9.7495235169060845e-04 -3.4233615262692925e-02 0.0000000000000000e+00  -7.0798649381493010e-04 -6.9183436713181083e-03 0.0000000000000000e+00  -1.0029433821507412e-03 -3.2598775988235122e-02 0.0000000000000000e+00  -3.4678993302757151e-04 -2.2491222898497814e-03 0.0000000000000000e+00  -3.0343496673488853e-04 -1.6228038972713819e-03 0.0000000000000000e+00  -2.9308361565825959e-03 -4.0687365897568509e-02 0.0000000000000000e+00  -2.8613431105226667e-03 -3.9148319052389725e-02 0.0000000000000000e+00  -8.4744458444884266e-04 -2.9362821252942647e-02 0.0000000000000000e+00  -6.9827765255523237e-04 -2.6929102281348656e-02 0.0000000000000000e+00  -3.7828521872965203e-04 -2.2131319586733120e-02 0.0000000000000000e+00  -9.6117839350272490e-04 -3.1795779156863498e-02 0.0000000000000000e+00  -5.5565219404299642e-04 -2.4524205248441924e-02 0.0000000000000000e+00  -2.4106586307935714e-04 -1.9813972291313688e-02 0.0000000000000000e+00  -1.0051417843583007e-03 -1.3160979745109391e-02 0.0000000000000000e+00  3.3368895325777481e-04 -3.4970200000720088e-03 0.0000000000000000e+00  -2.6973901811260144e-03 -3.6579744843381910e-02 0.0000000000000000e+00  -2.5680591140926443e-03 -3.5011070250668283e-02 0.0000000000000000e+00  3.3484409872219887e-04 -4.3541407034