<?xml version="1.0"?>
<VTKFile type="UnstructuredGrid"  version="0.1"  >
<UnstructuredGrid>
<Piece  NumberOfPoints="439" NumberOfCells="725">
<Points>
<DataArray  type="Float64"  NumberOfComponents="3"  format="ascii">0.5945152151914757 0.1377102967913056 0  0.5984258375315314 0.1573954361302662 0  0.2489897949 0.21 0  0.2489897949 0.19 0  0.5964705643072959 0.147552875511587 0  0.2496355385699469 0.2060260530378829 0  0.249959460510575 0.2020130349814059 0  0.2499594605105767 0.1979869650186357 0  0.24963553856995 0.1939739469621422 0  0.2540107288721148 0.2099325832755558 0  0.2590384542301448 0.2098600328897968 0  0.2640650504574437 0.2097681526913937 0  0.2690865961488341 0.2096157281099382 0  0.2741031612367285 0.209431090373679 0  0.2791216919668844 0.2092006193654348 0  0.2841315405755236 0.2089468593822284 0  0.2891331258224633 0.2086515000122884 0  0.2941340208351048 0.2083238965554075 0  0.2991289980254673 0.2079641598187271 0  0.3041255692484326 0.207561703253873 0  0.3091209479721609 0.2071527574649167 0  0.3141041099312381 0.2066959303632715 0  0.319095537767227 0.2062141954244896 0  0.324072044749768 0.2057093058176675 0  0.3290485798145833 0.2051709549390889 0  0.3340200583750587 0.2046134641193311 0  0.338986528814738 0.204023535519345 0  0.3439467591639217 0.2034205540811274 0  0.3489039379318129 0.2027902884929116 0  0.3538559944350808 0.2021413210194918 0  0.3588026154439509 0.2014740525361245 0  0.3637494502355769 0.2007772495621699 0  0.3686955357487528 0.2000763602123766 0  0.3736341451326222 0.1993489425771636 0  0.3785682932985428 0.1986108475153789 0  0.3834994113087637 0.1978533770537962 0  0.3884266321762114 0.1970820872978586 0  0.3933491507219338 0.1962978213350208 0  0.3982710444048821 0.195492673109754 0  0.4031922253738556 0.1946856415371666 0  0.4081055296395719 0.1938602995567001 0  0.4130176272022913 0.1930209791859586 0  0.4179287838629679 0.1921784846676013 0  0.4228335860707029 0.1913202976734771 0  0.4277396933767035 0.1904546292690965 0  0.4326399176148392 0.1895799249930863 0  0.4375405971804486 0.1886951774204358 0  0.4424366989936605 0.1878046454446271 0  0.4473303523160808 0.1869054872184135 0  0.4522230247499391 0.186000378397237 0  0.4571139459862167 0.1850884561003129 0  0.4620015872873927 0.1841705457169466 0  0.4668884957239234 0.1832477790176815 0  0.4717737416107535 0.1823193724941536 0  0.4766562988563943 0.1813862303247022 0  0.4815379337427096 0.180449301684818 0  0.4864181690441186 0.1795079759194702 0  0.4912963235887041 0.1785633156656347 0  0.496173670148896 0.1776158129845726 0  0.5010498789682414 0.1766650801489679 0  0.5059244569691704 0.1757119050494584 0  0.510798356384203 0.1747567205275048 0  0.515671320004512 0.1737992470423277 0  0.5205430424728975 0.1728401250177792 0  0.5254142909804587 0.1718795990978282 0  0.5302847927983803 0.1709176035030548 0  0.5351544831215739 0.1699545436847961 0  0.5400234953469373 0.1689907075124333 0  0.5448918580341736 0.1680259800779224 0  0.549759825450243 0.1670605312921034 0  0.5546276171654211 0.1660949950197481 0  0.5594948359105449 0.1651288000211953 0  0.5643619202314668 0.1641623777761343 0  0.5692286560438455 0.1631958172293366 0  0.5740951295709869 0.1622290680492068 0  0.5789614992523381 0.1612623286520894 0  0.5838276911181001 0.1602955641095553 0  0.588693780658671 0.1593287961865993 0  0.5935598368649538 0.1583621094976498 0  0.5896492345785627 0.1386770270469433 0  0.5847832472125286 0.1396437853675904 0  0.579917288348178 0.1406105778852416 0  0.5750513657442694 0.1415773673130191 0  0.5701854768215535 0.1425440817695049 0  0.5653196589939073 0.1435107467587005 0  0.5604539134927361 0.1444771597467535 0  0.5555883483699501 0.1454432924474902 0  0.5507227689302963 0.1464091839853598 0  0.5458573334233969 0.1473744370703387 0  0.5409920322750076 0.1483393114329777 0  0.5361266466331975 0.1493033129735582 0  0.531261486043396 0.1502661330886944 0  0.5263966197212888 0.1512286441581826 0  0.5215315193733999 0.1521895062728625 0  0.5166667501654566 0.1531483531422071 0  0.5118023307927813 0.1541066596593768 0  0.5069373721512626 0.1550623932580611 0  0.5020728696010862 0.1560152286983923 0  0.4972088148028923 0.1569672813239101 0  0.4923439068064109 0.1579156217148866 0  0.4874795792731338 0.1588599381155087 0  0.4826158041031411 0.1598031839580208 0  0.4777507872084089 0.1607413707548002 0  0.4728865268268229 0.1616741017199381 0  0.4680227931944664 0.1626048120335607 0  0.4631581556019189 0.1635298601124417 0  0.4582940727566595 0.1644474627104623 0  0.4534302208216298 0.1653636700801926 0  0.4485638943633442 0.1662715505228932 0  0.4436994810957474 0.1671696956130931 0  0.4388358819746875 0.1680655139634336 0  0.4339706598436153 0.1689506996136138 0  0.4291044937778807 0.1698303149157319 0  0.4242383071492865 0.1707006706203007 0  0.4193707333039648 0.1715592746377325 0  0.4145055958772302 0.1724114211680989 0  0.4096382745271586 0.1732514005931078 0  0.4047724828411168 0.1740809729616576 0  0.3999072570076933 0.174898150093703 0  0.3950408060067034 0.1757019198501399 0  0.3901712977561136 0.1764955450705535 0  0.385300776804728 0.1772737248448982 0  0.3804365229640453 0.1780404805605983 0  0.3755659479322686 0.1787894726185376 0  0.3707010343301084 0.1795204023657677 0  0.3658304027391664 0.1802379639668984 0  0.3609614440565376 0.1809337462982327 0  0.3560889895151565 0.1816161465486463 0  0.3512152968935802 0.1822767073356305 0  0.3463503627682197 0.1829218336515828 0  0.3414768963017293 0.1835434970884142 0  0.3366121637727174 0.1841400332918577 0  0.3317370358359096 0.1847166212515123 0  0.3268650312171174 0.1852594295216339 0  0.3219959860071452 0.1857944115041637 0  0.3171221472133252 0.18629205872987 0  0.3122606309835761 0.1867648785725516 0  0.3073873220980476 0.1872117382843428 0  0.302517493142719 0.1876209307871753 0  0.2976446702946334 0.1880086552428429 0  0.2927710491438572 0.1883592639494396 0  0.2879091423371883 0.1886846682564344 0  0.2830343533350498 0.188974528667258 0  0.2781738219447614 0.1892301085699831 0  0.2733037421253056 0.189443106207151 0  0.2684461097584835 0.1896202502847643 0  0.2635811247793838 0.1897695121411153 0  0.2587162264358521 0.1898746135119208 0  0.2538532402908307 0.1899293870718508 0  0.5954929169663516 0.1426315822993278 0  0.5974481998461573 0.1524741604266673 0  0.2589834014920192 0.2004821412555501 0  0.5405086814857184 0.1586659752006364 0  0.5652040472983886 0.1537345715848303 0  0.2774780491914 0.2001199192903452 0  0.5116446494896824 0.1642671850918086 0  0.5262487895643134 0.161388452641088 0  0.2944351629166718 0.1976103770613798 0  0.57943030596572 0.1504708065407548 0  0.3103470727441803 0.1970044891713503 0  0.3369213014455599 0.1950578373115867 0  0.4970368005960293 0.1671285929414643 0  0.3549963607253328 0.1919040586536676 0  0.4824239502421286 0.1699652419138094 0  0.3703378302074852 0.1897476439494844 0  0.3893167788340711 0.1868062236328713 0  0.4673729794517609 0.1724821884688177 0  0.4528342443631101 0.1756894448609368 0  0.4036509690405787 0.1845568410392879 0  0.4186628920122327 0.1818832551495901 0  0.4375780658788423 0.1784902168289759 0  0.3201512672675228 0.1960980496563298 0  0.555527885487194 0.1556774249922816 0  0.427051522317892 0.1802471157561994 0  0.3465528610442169 0.1931759730709545 0  0.3809025664574636 0.1882861429883757 0  0.2860523763089262 0.1988964119865562 0  0.5873895154816657 0.1475613779241547 0  0.2680365140005377 0.2013731449180912 0  0.4605661271072884 0.1765363374656538 0  0.489818053601499 0.1709332825842872 0  0.5044325084814255 0.1680832063522618 0  0.3962952670636423 0.1833889019190494 0  0.475196545211615 0.1737543832836358 0  0.519041387654931 0.1652122657222699 0  0.4459245520196656 0.1792681412825104 0  0.533646093773263 0.1623271280783039 0  0.4109518654128227 0.1809264421646035 0  0.3620445904212153 0.1886490358868876 0  0.303146648465522 0.1953899354607462 0  0.5717005530955056 0.1501718550940866 0  0.5471481214861958 0.1544118027026258 0  0.328372323305561 0.198098327133924 0  0.5464472245572476 0.161416988016352 0  0.3296674813323188 0.1911864211194131 0  0.5346104761590839 0.1558704232735247 0  0.5200112462837519 0.1587561809939422 0  0.5054104123012703 0.1616281348348307 0  0.5750539448840454 0.1557721928585089 0  0.3014450743622366 0.2016727360433965 0  0.4762008353061031 0.1673029968754084 0  0.4908072516805146 0.1644797756311355 0  0.3951120195294255 0.1898043025917209 0  0.3607189907857755 0.1950315982755245 0  0.4572717679883608 0.1709018191697644 0  0.4469741719288222 0.1728241896220362 0  0.4098164563542973 0.1873522072041127 0  0.2557516618123278 0.1960552436107184 0  0.2550416397174573 0.203418767698171 0  0.4344004394539405 0.1829266614632561 0  0.3736422957072021 0.1854119918303796 0  0.3399511665095334 0.1898599969307587 0  0.2810878930416558 0.1951753663292291 0  0.2909969854700524 0.194618904172663 0  0.4244090008519331 0.1848945466885754 0  0.3494002951690943 0.1886565188122452 0  0.3836354547138717 0.1836935152543054 0  0.3161798431218595 0.1926156353081298 0  0.5599591778404065 0.1586753623030125 0  0.5587358662186602 0.1510351112133656 0  0.3165241449992539 0.2003341679933645 0  0.2709356515693614 0.1955510856057774 0  0.5848952140960173 0.15468441932254 0  0.4327912976269251 0.1747460589662813 0  0.4226680003176287 0.1769756932759553 0  0.340641822881702 0.1985984901563718 0  0.281098254987698 0.2039116570826841 0  0.2916965069970329 0.2032891721831281 0  0.375007154576964 0.1936265561882896 0  0.3503386080761863 0.1977491116247801 0  0.3848041647910669 0.192768827996361 0  0.2647177782924257 0.1959891787598714 0  0.5916748819942158 0.1526405067323538 0  0.5287842619804182 0.1565315034562162 0  0.514184758777448 0.1594123580420496 0  0.307304828787293 0.2016590682169897 0  0.4995836022371116 0.1622769869659058 0  0.5694261216510855 0.1573731224036801 0  0.4849799963049116 0.165118262415941 0  0.4704152689481077 0.1679151463740362 0  0.3665816559727142 0.194696851452418
[...]
<PointData  Vectors="f_20-1"> 
<DataArray  type="Float64"  Name="f_20-1"  NumberOfComponents="3" format="ascii">-5.4847848085242852e-03 -5.2289703208694381e-02 0.0000000000000000e+00  -1.5741624684683872e-03 -5.2604563869733757e-02 0.0000000000000000e+00  0.0000000000000000e+00 0.0000000000000000e+00 0.0000000000000000e+00  0.0000000000000000e+00 0.0000000000000000e+00 0.0000000000000000e+00  -3.5294356927039576e-03 -5.2447124488413002e-02 0.0000000000000000e+00  0.0000000000000000e+00 0.0000000000000000e+00 0.0000000000000000e+00  0.0000000000000000e+00 0.0000000000000000e+00 0.0000000000000000e+00  0.0000000000000000e+00 0.0000000000000000e+00 0.0000000000000000e+00  0.0000000000000000e+00 0.0000000000000000e+00 0.0000000000000000e+00  7.7128266485500141e-05 -6.7416724444156580e-05 0.0000000000000000e+00  1.6104791889057614e-04 -1.3996711020317862e-04 0.0000000000000000e+00  2.4383844055161173e-04 -2.3184730860633605e-04 0.0000000000000000e+00  3.2157842630418801e-04 -3.8427189006174685e-04 0.0000000000000000e+00  3.9433780857157425e-04 -5.6890962632096236e-04 0.0000000000000000e+00  4.6906283310907740e-04 -7.9938063456515545e-04 0.0000000000000000e+00  5.3510573612991627e-04 -1.0531406177715457e-03 0.0000000000000000e+00  5.9288527744667851e-04 -1.3484999877116600e-03 0.0000000000000000e+00  6.4997458445254235e-04 -1.6761034445925160e-03 0.0000000000000000e+00  7.0114606919658947e-04 -2.0358401812729256e-03 0.0000000000000000e+00  7.5391158653275684e-04 -2.4382967461270217e-03 0.0000000000000000e+00  8.0548460464287188e-04 -2.8472425350833273e-03 0.0000000000000000e+00  8.4484085810153571e-04 -3.3040696367284753e-03 0.0000000000000000e+00  8.9246298847212035e-04 -3.7858045755104152e-03 0.0000000000000000e+00  9.2516426539479145e-04 -4.2906941823324888e-03 0.0000000000000000e+00  9.5789362459162909e-04 -4.8290450609111300e-03 0.0000000000000000e+00  9.8556647943796611e-04 -5.3865358806688898e-03 0.0000000000000000e+00  1.0082312135095849e-03 -5.9764644806550166e-03 0.0000000000000000e+00  1.0246558570641384e-03 -6.5794459188726192e-03 0.0000000000000000e+00  1.0380289193369474e-03 -7.2097115070883589e-03 0.0000000000000000e+00  1.0462797169863000e-03 -7.8586789805081721e-03 0.0000000000000000e+00  1.0490950202381613e-03 -8.5259474638755411e-03 0.0000000000000000e+00  1.0521241062457581e-03 -9.2227504378300709e-03 0.0000000000000000e+00  1.0544039138032260e-03 -9.9236397876233968e-03 0.0000000000000000e+00  1.0492075920433166e-03 -1.0651057422836377e-02 0.0000000000000000e+00  1.0395500523550873e-03 -1.1389152484621169e-02 0.0000000000000000e+00  1.0268623569516973e-03 -1.2146622946203840e-02 0.0000000000000000e+00  1.0102775187776428e-03 -1.2917912702141399e-02 0.0000000000000000e+00  9.8899035887068418e-04 -1.3702178664979230e-02 0.0000000000000000e+00  9.6707833621149009e-04 -1.4507326890245946e-02 0.0000000000000000e+00  9.4445359955701205e-04 -1.5314358462833345e-02 0.0000000000000000e+00  9.1395215966111017e-04 -1.6139700443299845e-02 0.0000000000000000e+00  8.8224401676031408e-04 -1.6979020814041339e-02 0.0000000000000000e+00  8.4959497181622511e-04 -1.7821515332398685e-02 0.0000000000000000e+00  8.1059147393919653e-04 -1.8679702326522926e-02 0.0000000000000000e+00  7.7289307431176277e-04 -1.9545370730903500e-02 0.0000000000000000e+00  7.2931160681394714e-04 -2.0420075006913629e-02 0.0000000000000000e+00  6.8618546677135666e-04 -2.1304822579564196e-02 0.0000000000000000e+00  6.3848157432757572e-04 -2.2195354555372866e-02 0.0000000000000000e+00  5.8832919108414900e-04 -2.3094512781586436e-02 0.0000000000000000e+00  5.3719591929455776e-04 -2.3999621602762981e-02 0.0000000000000000e+00  4.8431144993033053e-04 -2.4911543899687069e-02 0.0000000000000000e+00  4.2814704547670235e-04 -2.5829454283053402e-02 0.0000000000000000e+00  3.7124977635690865e-04 -2.6752220982318463e-02 0.0000000000000000e+00  3.1268995755387435e-04 -2.7680627505846319e-02 0.0000000000000000e+00  2.5144149752749835e-04 -2.8613769675297815e-02 0.0000000000000000e+00  1.8927067819621057e-04 -2.9550698315182023e-02 0.0000000000000000e+00  1.2570027394251125e-04 -3.0492024080529801e-02 0.0000000000000000e+00  6.0049112897409216e-05 -3.1436684334365320e-02 0.0000000000000000e+00  -6.4100325649975045e-06 -3.2384187015427439e-02 0.0000000000000000e+00  -7.4006918848365120e-05 -3.3334919851032145e-02 0.0000000000000000e+00  -1.4323462357893657e-04 -3.4288094950541650e-02 0.0000000000000000e+00  -2.1314091418420157e-04 -3.5243279472495205e-02 0.0000000000000000e+00  -2.8398299949156103e-04 -3.6200752957672229e-02 0.0000000000000000e+00  -3.5606623674388181e-04 -3.7159874982220779e-02 0.0000000000000000e+00  -4.2862343484145196e-04 -3.8120400902171850e-02 0.0000000000000000e+00  -5.0192732255882860e-04 -3.9082396496945150e-02 0.0000000000000000e+00  -5.7604270502487043e-04 -4.0045456315203919e-02 0.0000000000000000e+00  -6.5083618529950774e-04 -4.1009292487566719e-02 0.0000000000000000e+00  -7.2627920367912763e-04 -4.1974019922077527e-02 0.0000000000000000e+00  -8.0211749324774590e-04 -4.2939468707896576e-02 0.0000000000000000e+00  -8.7813148372451822e-04 -4.3905004980251912e-02 0.0000000000000000e+00  -9.5471844424343047e-04 -4.4871199978804767e-02 0.0000000000000000e+00  -1.0314398289811202e-03 -4.5837622223865643e-02 0.0000000000000000e+00  -1.1085097222660863e-03 -4.6804182770663394e-02 0.0000000000000000e+00  -1.1858419007591582e-03 -4.7770931950793169e-02 0.0000000000000000e+00  -1.2632779250453966e-03 -4.8737671347910627e-02 0.0000000000000000e+00  -1.3408917649339871e-03 -4.9704435890444702e-02 0.0000000000000000e+00  -1.4186079300099860e-03 -5.0671203813400748e-02 0.0000000000000000e+00  -1.4963574293867020e-03 -5.1637890502350181e-02 0.0000000000000000e+00  -5.4069597158206330e-03 -5.1322972953056663e-02 0.0000000000000000e+00  -5.3291413762295639e-03 -5.0356214632409545e-02 0.0000000000000000e+00  -5.2512945349412633e-03 -4.9389422114758441e-02 0.0000000000000000e+00  -5.1734114332032451e-03 -4.8422632686980903e-02 0.0000000000000000e+00  -5.0954946502979118e-03 -4.7455918230495109e-02 0.0000000000000000e+00  -5.0175067723234115e-03 -4.6489253241299579e-02 0.0000000000000000e+00  -4.9394465678820245e-03 -4.5522840253246592e-02 0.0000000000000000e+00  -4.8612059850389657e-03 -4.4556707552509782e-02 0.0000000000000000e+00  -4.7829797190617595e-03 -4.3590816014640203e-02 0.0000000000000000e+00  -4.7046095203065212e-03 -4.2625562929661263e-02 0.0000000000000000e+00  -4.6261049630966838e-03 -4.1660688567022298e-02 0.0000000000000000e+00  -4.5476848993071580e-03 -4.0696687026441816e-02 0.0000000000000000e+00  -4.4690397835000020e-03 -3.9733866911305593e-02 0.0000000000000000e+00  -4.3901003999742647e-03 -3.8771355841817422e-02 0.0000000000000000e+00  -4.3113950422628685e-03 -3.7810493727137511e-02 0.0000000000000000e+00  -4.2323585445676326e-03 -3.6851646857792859e-02 0.0000000000000000e+00  -4.1529722116405822e-03 -3.5893340340623234e-02 0.0000000000000000e+00  -4.0741251475600176e-03 -3.4937606741938833e-02 0.0000000000000000e+00  -3.9948219921315262e-03 -3.3984771301607618e-02 0.0000000000000000e+00  -3.9150710846883492e-03 -3.3032718676089902e-02 0.0000000000000000e+00  -3.8361733755611716e-03 -3.2084378285113402e-02 0.0000000000000000e+00  -3.7566952032191932e-03 -3.1140061884491227e-02 0.0000000000000000e+00  -3.6766646675931748e-03 -3.0196816041979262e-02 0.0000000000000000e+00  -3.5978758566957507e-03 -2.9258629245199765e-02 0.0000000000000000e+00  -3.5183305326738248e-03 -2.8325898280061920e-02 0.0000000000000000e+00  -3.4382584594019102e-03 -2.7395187966439239e-02 0.0000000000000000e+00  -3.3590903463366446e-03 -2.6470139887558277e-02 0.0000000000000000e+00  -3.2793674859753555e-03 -2.5552537289537762e-02 0.0000000000000000e+00  -3.1994137153805737e-03 -2.4636329919807329e-02 0.0000000000000000e+00  -3.1219344680366475e-03 -2.3728449477106762e-02 0.0000000000000000e+00  -3.0425420300241777e-03 -2.2830304386906898e-02 0.0000000000000000e+00  -2.9623354454590186e-03 -2.1934486036566416e-02 0.0000000000000000e+00  -2.8837518709144616e-03 -2.1049300386386215e-02 0.0000000000000000e+00  -2.8061122310323781e-03 -2.0169685084268082e-02 0.0000000000000000e+00  -2.7284931540001145e-03 -1.9299329379699370e-02 0.0000000000000000e+00  -2.6522612936833371e-03 -1.8440725362267454e-02 0.0000000000000000e+00  -2.5735930147753592e-03 -1.7588578831901094e-02 0.0000000000000000e+00  -2.4971086592007839e-03 -1.6748599406892224e-02 0.0000000000000000e+00  -2.4190946395827410e-03 -1.5919027038342418e-02 0.0000000000000000e+00  -2.3405147673546617e-03 -1.5101849906296975e-02 0.0000000000000000e+00  -2.2631600626866768e-03 -1.4298080149860101e-02 0.0000000000000000e+00  -2.1888626076411854e-03 -1.3504454929446514e-02 0.0000000000000000e+00  -2.1155778533801838e-03 -1.2726275155101824e-02 0.0000000000000000e+00  -2.0360259884370756e-03 -1.1959519439401675e-02 0.0000000000000000e+00  -1.9627953145572208e-03 -1.1210527381462450e-02 0.0000000000000000e+00  -1.8839032110687679e-03 -1.0479597634232358e-02 0.0000000000000000e+00  -1.8107290963421492e-03 -9.7620360331016134e-03 0.0000000000000000e+00  -1.7358820733237106e-03 -9.0662537017673246e-03 0.0000000000000000e+00  -1.6645309090543752e-03 -8.3838534513536855e-03 0.0000000000000000e+00  -1.5944178250088365e-03 -7.7232926643695295e-03 0.0000000000000000e+00  -1.5155462447113044e-03 -7.0781663484172364e-03 0.0000000000000000e+00  -1.4452070055627226e-03 -6.4565029115857993e-03 0.0000000000000000e+00  -1.3661338289360843e-03 -5.8599667081422266e-03 0.0000000000000000e+00  -1.2974560601055900e-03 -5.2833787484877518e-03 0.0000000000000000e+00  -1.2256549732578086e-03 -4.7405704783662194e-03 0.0000000000000000e+00  -1.1508944775719134e-03 -4.2055884958362589e-03 0.0000000000000000e+00  -1.0809275657339722e-03 -3.7079412701299793e-03 0.0000000000000000e+00  -9.9863808982509597e-04 -3.2351214274484040e-03 0.0000000000000000e+00  -9.2814126971055592e-04 -2.7882617156572169e-03 0.0000000000000000e+00  -8.5416451940067441e-04 -2.3790692128246951e-03 0.0000000000000000e+00  -7.8318166184791033e-04 -1.9913447571570327e-03 0.0000000000000000e+00  -7.1299710698567351e-04 -1.6407360505603975e-03 0.0000000000000000e+00  -6.3109820799908461e-04 -1.3153317435655645e-03 0.0000000000000000e+00  -5.6208150447979374e-04 -1.0254713327419794e-03 0.0000000000000000e+00  -4.7880718911014691e-04 -7.6989143001692255e-04 0.0000000000000000e+00  -4.0508130291872836e-04 -5.5689379284895590e-04 0.0000000000000000e+00  -3.1890796410247624e-04 -3.7974971523568022e-04 0.0000000000000000e+00  -2.4008723756379998e-04 -2.3048785888465280e-04 0.0000000000000000e+00  -1.6117987545726878e-04 -1.2538648807916276e-04 0.0000000000000000e+00  -8.0360314827123054e-05 -7.0612928149199134e-05 0.0000000000000000e+00  -4.5070830336483283e-03 -5.2368417700650469e-02 0.0000000000000000e+00  -2.5518001538425749e-03 -5.2525839573305602e-02 0.0000000000000000e+00  9.9749603699617423e-06 -7.0248087290240082e-05 0.0000000000000000e+00  -2.6375528995892586e-03 -4.1334024799332590e-02 0.0000000000000000e+00  -3.0357421784274951e-03 -4.6235886996068419e-02 0.0000000000000000e+00  2.6656479597588050e-05 -6.7427265184741812e-04 0.0000000000000000e+00  -2.2049338872144122e-03 -3.5635157557283276e-02 0.0000000000000000e+00  -2.4322109294245202e-03 -3.8513890008008950e-02 0.0000000000000000e+00  -7.5732289092983601e-05 -1.6808137791588537e-03 0.0000000000000000e+00  -3.3477771727727225e-03 -4.9072173559580101e-02 0.0000000000000000e+00  -6.5766912745271989e-05 -2.9659694095474378e-03 0.0000000000000000e+00  -7.8874096295210430e-05 -5.7716239318100727e-03 0.0000000000000000e+00  -1.9813656640166673e-03 -3.2773749707625949e-02 0.0000000000000000e+00  -2.8525684557149646e-04 -8.0959413463932463e-03 0.0000000000000000e+00  -1.7627989010639408e-03 -2.9937100735275522e-02 0.0000000000000000e+00  -3.9954118306994148e-04 -1.0266593745884482e-02 0.0000000000000000e+00  -5.7147867617847957e-04 -1.3193776367211496e-02 0.0000000000000000e+00  -1.6127755975125909e-03 -2.7059483956851708e-02 0.0000000000000000e+00  -1.3234873210865585e-03 -2.4310555138973032e-02 0.0000000000000000e+00  -7.0252236125434308e-04 -1.5540816311636573e-02 0.0000000000000000e+00  -8.8819973172418244e-04 -1.8116744850515589e-02 0.0000000000000000e+00  -1.1239119856089246e-03 -2.1495545475701254e-02 0.0000000000000000e+00  -9.6007758147467959e-05 -3.9108345583101466e-03 0.0000000000000000e+00  -2.8774686208909630e-03 -4.4313690793076121e-02 0.0000000000000000e+00  -1.0151923708213830e-03 -1.9601789064624658e-02 0.0000000000000000e+00  -2.1313358233049723e-04 -6.9751221084829677e-03 0.0000000000000000e+00  -4.7006810842717829e-04 -1.1864952191076309e-02 0.0000000000000000e+00  -1.5961383283501903e-05 -1.1451325840619937e-03 0.0000000000000000e+00  -3.7328656964536544e-03 -5.0683538010719703e-02 0.0000000000000000e+00  4.7197854675156469e-05 -3.0198072863777992e-04 0.0000000000000000e+00  -1.0073131353394436e-03 -2.5714025863146483e-02 0.0000000000000000e+00  -1.4182208748463340e-03 -3.1317080744521872e-02 0.0000000000000000e+00  -1.6351831117728433e-03 -3.4167156976550025e-02 0.0000000000000000e+00  -1.0086990050351030e-03 -1.4360734752147022e-02 0.0000000000000000e+00  -1.2083121478747151e-03 -2.8495980045169272e-02 0.0000000000000000e+00  -1.8577210551142483e-03 -3.7038097606548519e-02 0.0000000000000000e+00  -8.1747110610012712e-04 -2.2982222046289615e-02 0.0000000000000000e+00  -2.0844320536219253e-03 -3.9923235250515943e-02 0.0000000000000000e+00  -1.1835177727089773e-03 -1.6823194506594093e-02 0.0000000000000000e+00  -6.5273570811993432e-04 -9.1006007843043475e-03 0.0000000000000000e+00  -2.2500919637414375e-04 -2.3597012104406788e-03 0.0000000000000000e+00  -3.5804183763172934e-03 -4.7577781577063591e-02 0.0000000000000000e+00  -3.3117344328603294e-03 -4.2716675771140869e-02 0.0000000000000000e+00  1.7955009087689352e-04 -4.7731943923166216e-03 0.0000000000000000e+00  -1.9706774924984974e-03 -4.2423333553124283e-02 0.0000000000000000e+00  -5.6724575168004717e-04 -4.9732573111359981e-03 0.0000000000000000e+00  -3.3106090647274924e-03 -4.0254758390886235e-02 0.0000000000000000e+00  -3.0784218232134219e-03 -3.7369000670463490e-02 0.0000000000000000e+00  -2.8478386888521026e-03 -3.4497046829579138e-02 0.0000000000000000e+00  -2.4175859846641192e-03 -4.8102625477079795e-02 0.0000000000000000e+00  2.6397609728173548e-04 -2.2020822921972267e-03 0.0000000000000000e+00  -2.3945814503079630e-03 -2.8822184788995658e-02 0.0000000000000000e+00  -2.6195821927524226e-03 -3.1645406033270831e-02 0.0000000000000000e+00  -1.3871423374935640e-06 -1.4070515743875739e-02 0.0000000000000000e+00  2.1222405336371436e-04 -8.8432200600706071e-03 0.0000000000000000e+00  -2.1111128573537501e-03 -2.5223362494634905e-02 0.0000000000000000e+00  -1.9584105938582619e-03 -2.3300992042364417e-02 0.0000000000000000e+00  -1.2836743432468998e-04 -1.6522611131486387e-02 0.0000000000000000e+00  -3.4638167869228178e-05 -3.0593415011113891e-05 0.0000000000000000e+00  2.6903686517449473e-05 -2.3875300940398650e-05 0.0000000000000000e+00  -4.0270819252830525e-04 -2.0847096300899252e-02 0.0000000000000000e+00  -9.9390590120783189e-04 -1.0814250405475690e-02 0.0000000000000000e+00  -6.7467007689690664e-04 -6.1867952632302528e-03 0.0000000000000000e+00  -2.1227507732755606e-04 -8.7142586482111500e-04 0.0000000000000000e+00  -2.7165327393690334e-04 -1.4627286922651774e-03 0.0000000000000000e+00  -2.6153273005616583e-04 -1.9058661117379028e-02 0.0000000000000000e+00  -7.6188056381873567e-04 -7.3902733819425810e-03 0.0000000000000000e+00  -1.1333609583976429e-03 -1.2353276939930472e-02 0.0000000000000000e+00  -4.5252541649646569e-04 -3.5438232552402553e-03 0.0000000000000000e+00  -2.1958232649343414e-03 -4.5106286956886628e-02 0.0000000000000000e+00  -3.7055214833168360e-03 -4.5041081147772111e-02 0.0000000000000000e+00  2.8464141594096475e-04 -3.5337877491046555e-03 0.0000000000000000e+00  -1.5306185140073853e-04 -4.1855872680640166e-04 0.0000000000000000e+00  -2.4062235443428710e-03 -5.0038368780542311e-02 0.0000000000000000e+00  -1.8766590173457359e-03 -2.0719086988969980e-02 0.0000000000000000e+00  -1.6616500901698776e-03 -1.8900004817950910e-02 0.0000000000000000e+00  3.8587179834962174e-04 -6.1955598727204998e-03 0.0000000000000000e+00  2.2976231160463833e-04 -8.6258469858153616e-04 0.0000000000000000e+00  2.8880368316068082e-04 -1.4917795239673725e-03 0.0000000000000000e+00  2.3576196647081280e-04 -1.0908297856565797e-02 0.0000000000000000e+00  4.1695918629963853e-04 -7.4262296938503759e-03 0.0000000000000000e+00  2.7587596183711665e-04 -1.2406513322275008e-02 0.0000000000000000e+00  -9.6708253079502582e-05 -2.1979553876604348e-04 0.0000000000000000e+00  -2.6498823720735509e-03 -5.1401035626564388e-02 0.0000000000000000e+00  -3.3129990651963610e-03 -3.9113006448871057e-02 0.0000000000000000e+00  -3.0810851513246133e-03 -3.6232151863035821e-02 0.0000000000000000e+00  3.1250322702723268e-04 -2.6877351702654117e-03 0.0000000000000000e+00  -2.8508245748148069e-03 -3.3367522939180633e-02 0.0000000000000000e+00  -2.2341819223495683e-03 -4.6973680983595986e-02 0.0000000000000000e+00  -2.6230133901625065e-03 -3.0526247489142091e-02 0.0000000000000000e+00  -2.3999285815186743e-03 -2.7725100516953267e-02 0.0000000000000000e+00  2.5147831996044320e-04 -9.6706034114412472e-03 0.0000000000000000e+00  -2.2850999736138181e-03 -2.6291456612441370e-02 0.0000000000000000e+00  2.7008420752675366e-05 -1.5025628410686375e-02 0.0000000000000000e+00  -1.9664746845287503e-03 -2.2236874323867045e-02 0.0000000000000000e+00  -1.0294245159010253e-04 -1.7518958989977722e-02 0.0000000000000000e+00  -4.1593829285656130e-03 -4.9740522899034981e-02 0.0000000000000000e+00  -1.9440282354690553e-03 -4.3554100846112435e-02 0.0000000000000000e+00  -5.8142325797505860e-04 -4.3436630949294733e-03 0.0000000000000000e+00  1.7834335790025153e-04 -4.5467251068701187e-04 0.0000000000000000e+00  9.4629352558258119e-05 -1.7568026398293675e-04 0.0000000000000000e+00  -5.0271511328690984e-04 -2.4861919138184089e-02 0.0000000000000000e+00  -1.6237568313674732e-03 -1.7589324728295712e-02 0.0000000000000000e+00  -6.9209808591760109e-04 -2.7630005359574859e-02 0.0000000000000000e+00  -1.3392988903031954e-03 -3.6144096230503214e-02 0.0000000000000000e+00  -9.1129965175534464e-04 -3.0436306595800423e-02 0.0000000000000000e+00  -1.1216529603093098e-03 -3.3278621137976035e-02 0.0000000000000000e+00  -1.3304809455891105e-03 -1.5158378873505282e-02 0.0000000000000000e+00  -3.5760159783962007e-04 -2.2165132802771322e-02 0.0000000000000000e+00  -1.0087890934683556e-03 -9.7510609512528774e-03 0.0000000000000000e+00  -1.3362393080461686e-03 -1.3570724634719450e-02 0.0000000000000000e+00  -1.6901063642102145e-03 -4.0892575255046151e-02 0.0000000000000000e+00  -9.3445609743690009e-04 -8.4258898868015009e-03 0.0000000000000000e+00  -1.6955813449210161e-03 -3.8978887167535795e-02 0.0000000000000000e+00  -4.4024746210569751e-04 -2.7470619736850222e-03 0.0000000000000000e+00  -3.8170828253037721e-04 -1.9826424038999206e-03 0.0000000000000000e+00  -4.0806983367283134e-03 -4.8401720410364488e-02 0.0000000000000000e+00  -3.9749680665904768e-03 -4.6605577816756824e-02 0.0000000000000000e+00  -1.4586068073906462e-03 -3.5187514810979002e-02 0.0000000000000000e+00  -1.2415349467094429e-03 -3.2328932867997227e-02 0.0000000000000000e+00  -7.8020705527821472e-04 -2.6669335802969419e-02 0.0000000000000000e+00  -1.6331934092063511e-03 -3.8039051177378831e-02 0.0000000000000000e+00  -1.0317534440047258e-03 -2.9496246049629041e-02 0.0000000000000000e+00  -5.7667456010534145e-04 -2.3921671912474640e-02 0.0000000000000000e+00  -1.3810939874656753e-03 -1.5959317497686511e-02 0.0000000000000000e+00  3.7608716777370090e-04 -4.2767491280655216e-03 0.0000000000000000e+00  -3.7426246224457399e-03 -4.3607638288292699e-02 0.0000000000000000e+00  -3.5666304486278474e-03 -4.1775995503122360e-02 0.0000000000000000e+00  3.6667260214449877e-04 -5