<?xml version="1.0"?>
<VTKFile type="UnstructuredGrid"  version="0.1"  >
<UnstructuredGrid>
<Piece  NumberOfPoints="439" NumberOfCells="725">
<Points>
<DataArray  type="Float64"  NumberOfComponents="3"  format="ascii">0.575213750907189 0.07686611137615788 0  0.5839549436313034 0.09500492461823271 0  0.2489897949 0.21 0  0.2489897949 0.19 0  0.579584393054951 0.0859355508466242 0  0.2496355385699469 0.2060260530378829 0  0.249959460510575 0.2020130349814059 0  0.2499594605105767 0.1979869650186357 0  0.24963553856995 0.1939739469621422 0  0.2540826518000394 0.2098697150603125 0  0.2591901729429465 0.209725734551236 0  0.2642953897240781 0.2095418505809703 0  0.2693887239844777 0.2092348444188276 0  0.2744708255451266 0.2088607216429827 0  0.2795539355481608 0.2083919145582884 0  0.2846176816665469 0.2078737803865237 0  0.2896605360514516 0.2072695381000413 0  0.2946982379956971 0.2065967808340419 0  0.2997194240621821 0.2058560897301113 0  0.3047372123002671 0.2050233032667855 0  0.3097518744547519 0.2041754994658864 0  0.3147319339917238 0.2032264425715579 0  0.319724593383777 0.2022203429866468 0  0.3246805139013841 0.2011660708776489 0  0.3296284136342241 0.2000370505906651 0  0.3345607123311975 0.1988659762223157 0  0.3394732341241213 0.1976232819056648 0  0.3443682444663307 0.1963515953600385 0  0.3492483189534526 0.195018610932546 0  0.354111041556867 0.1936437711091833 0  0.3589552637896696 0.1922277715000182 0  0.3637895714482241 0.190742355323718 0  0.3686209778939787 0.1892466857480866 0  0.3734250504468736 0.1876909634679356 0  0.3782143544697839 0.1861105219102416 0  0.3829886978583546 0.1844845243029341 0  0.3877479635499688 0.1828261725851082 0  0.3924901617989178 0.1811375405448085 0  0.3972212943197938 0.1793971349082082 0  0.4019500883135912 0.1776517363862326 0  0.4066506220003617 0.1758639649023985 0  0.4113411070603566 0.1740405852425387 0  0.4160277807289142 0.1722091033611868 0  0.4206901260960967 0.1703401933112903 0  0.4253519447454783 0.1684505896838712 0  0.4299935598353127 0.1665399526789726 0  0.4346309035951667 0.1646020387795789 0  0.439252790551947 0.162650814585029 0  0.4438630454492297 0.1606772875535165 0  0.4484671825748699 0.1586876346019382 0  0.453062552918323 0.1566798651851224 0  0.4576451131604337 0.154657142991187 0  0.4622226078127082 0.1526207062562343 0  0.4667919302868319 0.1505689529721622 0  0.4713504481497476 0.1485050555914584 0  0.4759038469843508 0.1464303135997929 0  0.4804503298821374 0.1443432804421008 0  0.484988356436329 0.14224746925999 0  0.4895220479942913 0.1401432657339551 0  0.4940501440242567 0.1380297480413105 0  0.4985714873535811 0.1359096074085684 0  0.5030893295919499 0.1337833368316266 0  0.5076026662541622 0.1316502704154163 0  0.5121108309915845 0.1295126170719424 0  0.5166164748096752 0.1273704703143569 0  0.5211186594849861 0.1252238463126265 0  0.5256174037833291 0.123074057985344 0  0.5301133091885518 0.1209220272688581 0  0.534606340200157 0.1187672259687374 0  0.539097504205996 0.116610003166205 0  0.5435880362667704 0.1144525365895524 0  0.5480760802276843 0.1122930077505174 0  0.5525635380929711 0.1101326136811404 0  0.5570496304604307 0.1079719121050431 0  0.5615347090389158 0.1058105747680256 0  0.5660194395732607 0.1036493339759091 0  0.5705035594597146 0.1014880381643155 0  0.5749874048944136 0.09932676436083823 0  0.5794712232686539 0.09716580346180408 0  0.5707300721984864 0.07902694244019183 0  0.5662465381964684 0.0811878383909285 0  0.5617631947726878 0.08334884018626718 0  0.5572801081430644 0.08550970124573118 0  0.5527971879763742 0.08767015939724926 0  0.5483145638797118 0.08983032734663818 0  0.5438320823661593 0.09198936294239733 0  0.5393500837214514 0.09414710947687492 0  0.5348678459934266 0.09630389547209821 0  0.5303856279509558 0.09845811535777878 0  0.5259035630179274 0.1006107992104398 0  0.521420461676668 0.1027603406344203 0  0.5169371482744021 0.1049054621416784 0  0.5124545460416617 0.1070492494401426 0  0.5079697090266316 0.1091874820577632 0  0.5034842831474072 0.111318631407599 0  0.4989994971317563 0.1134477094686157 0  0.494510746213026 0.1155686947753101 0  0.4900210703979256 0.1176799857122569 0  0.4855320890234735 0.119788465005536 0  0.4810373538562601 0.1218858577378293 0  0.4765412100824636 0.1239704142838346 0  0.4720458004329715 0.1260513415941601 0  0.4675426207159768 0.128117842988712 0  0.4630375383330115 0.1301676822697304 0  0.4585323964016281 0.1322113387244041 0  0.4540202798977023 0.1342390329382561 0  0.4495043897951775 0.1362452249726663 0  0.4449879344049029 0.1382473004050275 0  0.4404586106700688 0.1402276620475321 0  0.4359279573746886 0.1421799201363561 0  0.4313978203356064 0.144125538429524 0  0.4268561029167309 0.1460432074137415 0  0.4223081694209322 0.1479467772490483 0  0.4177541879653868 0.1498257247943958 0  0.4131893072615108 0.1516747907933974 0  0.4086267288131336 0.1535057761933857 0  0.4040513280135018 0.1553067227533886 0  0.3994737850771634 0.1570805407253358 0  0.3948905726042326 0.1588228901956318 0  0.3902967883982216 0.1605326366977998 0  0.3856897598849968 0.1622189633197864 0  0.3810722922139929 0.1638680060628862 0  0.3764644559660447 0.1654864153102906 0  0.3718324349979418 0.1670653068786513 0  0.3672055185293582 0.1685985996337193 0  0.3625586553246498 0.1701031353051827 0  0.3579064673269676 0.1715561740686449 0  0.353240018114267 0.1729797466833639 0  0.3485618727342244 0.1743535782427477 0  0.34389808574206 0.1756891554508915 0  0.3392056823177003 0.1769749134814269 0  0.3345242632508193 0.1782012465791376 0  0.3298123366402643 0.1793869160180839 0  0.3250968638156645 0.1804972226555989 0  0.3203854064319639 0.1815903153500875 0  0.31565244658223 0.1826030788669278 0  0.310940170913985 0.1835598330435797 0  0.3061952720379711 0.184463845057461 0  0.3014492085478726 0.1852871825420903 0  0.2966917122312337 0.1860663955990424 0  0.2919252137395765 0.1867679055195958 0  0.287179129307875 0.1874156476490287 0  0.2823996015687071 0.187992304009023 0  0.2776449432729684 0.188496778154168 0  0.2728648183485132 0.1889161075362853 0  0.2681060785730977 0.1892621918766125 0  0.2633293264386936 0.1895536978026046 0  0.2585495580646006 0.1897574930713548 0  0.2537709365109227 0.1898613083273866 0  0.5773991214151509 0.08140080696580944 0  0.5817696256423025 0.09047026593669659 0  0.2589884789518839 0.2004191518960203 0  0.5280123982798544 0.1107690617088959 0  0.5507674329210742 0.09979189243347222 0  0.2774705226522349 0.1994613986972476 0  0.5013459928104739 0.1233752200062137 0  0.514833294828988 0.1169666946880035 0  0.294250718187954 0.1959344353721989 0  0.5637659221812275 0.09304923146497572 0  0.3100507261554169 0.1939899444508338 0  0.3362564270537187 0.1890396924989867 0  0.4878333433610934 0.1297292365434214 0  0.3537400196698187 0.1833614781047587 0  0.4742865867684903 0.1360086964690676 0  0.3685682568282972 0.1787981795802155 0  0.3867708669470845 0.1725567980322014 0  0.4602090950986029 0.1420124475819866 0  0.4467537001094825 0.1484831717808577 0  0.4004481619463566 0.1676216708188224 0  0.414650822912853 0.1619718088215858 0  0.4324610979219575 0.1546213055798774 0  0.3197155561768757 0.1920865666749318 0  0.5418559271697133 0.1041067626797828 0  0.4225328338233577 0.1586081767740681 0  0.3455592341453994 0.1858609010010495 0  0.3787437748680158 0.1755378061629025 0  0.2859702081790828 0.1977637492981447 0  0.5707660354663027 0.08822419441336823 0  0.2680689242130356 0.2010838349098363 0  0.4544995545568985 0.1475450363302803 0  0.4817207634054694 0.1351791351669032 0  0.4952625260235743 0.1288563695870065 0  0.3929957136128491 0.1678867533867243 0  0.4681367198016088 0.1414172250291797 0  0.5087711972035752 0.1224702634378281 0  0.4407978844231989 0.1535362865912481 0  0.5222554174073055 0.116039182023366 0  0.4068943764262592 0.1626011662741715 0  0.3602025370344153 0.1790509238278417 0  0.3027436456661331 0.1930237759758152 0  0.5561834552939735 0.09469994437323849 0  0.53339989809489 0.104975205804821 0  0.3281241887599076 0.1931278006347448 0  0.534468869194864 0.1119574384433721 0  0.3285834083623352 0.1860953552401224 0  0.5215864066744597 0.1095224999283899 0  0.5081210853409076 0.1159513229042712 0  0.494639169223571 0.1223345172045117 0  0.5608456966401582 0.09929816063917717 0  0.3015697307060561 0.1994278956774115 0  0.4675963002555661 0.1348874833671365 0  0.4811336481729063 0.1286537684268927 0  0.3930399941733594 0.1744250056629596 0  0.3598905883761667 0.1855720865446728 0  0.4499940830067282 0.1427956331301523 0  0.4403908957665014 0.1469977520998201 0  0.4070642955323822 0.1691410832375582 0  0.2557141373817454 0.1960289126978267 0  0.2550658154339813 0.2033990091768052 0  0.4303055947774321 0.1596553791205242 0  0.3710936282162735 0.1739544830256547 0  0.3385720216923865 0.183474338895113 0  0.2808236641395588 0.1943303065128183 0  0.2906271133104916 0.1931792411888127 0  0.4209132424158003 0.1637201373603804 0  0.3477331171456539 0.1809691374454823 0  0.3806187783693695 0.1705185070092601 0  0.3154063450649841 0.1890323238982339 0  0.546911216022372 0.1059079193697087 0  0.5438085450541219 0.09879195621520133 0  0.3165374725582388 0.1966814735653457 0  0.2707595209871555 0.1951529518499932 0  0.5701316517568907 0.09576960704223188 0  0.4269683217003982 0.151987637469357 0  0.4175524064566094 0.1563208600459066 0  0.3404227853852093 0.1920496577090497 0  0.2812861822381795 0.2030522045977497 0  0.2919038337600319 0.2017809025819446 0  0.3738351731831809 0.1818314283921937 0  0.3499682476996429 0.189836411599105 0  0.3833887216910561 0.1792524278865497 0  0.2646091312248027 0.1957828949176112 0  0.5762036750080182 0.09208159571824422 0  0.5160913220018343 0.1116141864264281 0  0.5026211030715888 0.1180263170920653 0  0.3074350348489034 0.1989000568073091 0  0.4891323134426038 0.1243857332632117 0  0.5557808241823171 0.1022665286275067 0  0.4756174149637368 0.1306728335705717 0  0.4621065032681996 0.1368430447338885 0  0.3656524
[...]
<PointData  Vectors="f_20-1"> 
<DataArray  type="Float64"  Name="f_20-1"  NumberOfComponents="3" format="ascii">-2.4786249092811182e-02 -1.1313388862384205e-01 0.0000000000000000e+00  -1.6045056368696371e-02 -1.1499507538176730e-01 0.0000000000000000e+00  0.0000000000000000e+00 0.0000000000000000e+00 0.0000000000000000e+00  0.0000000000000000e+00 0.0000000000000000e+00 0.0000000000000000e+00  -2.0415606945048757e-02 -1.1406444915337584e-01 0.0000000000000000e+00  0.0000000000000000e+00 0.0000000000000000e+00 0.0000000000000000e+00  0.0000000000000000e+00 0.0000000000000000e+00 0.0000000000000000e+00  0.0000000000000000e+00 0.0000000000000000e+00 0.0000000000000000e+00  0.0000000000000000e+00 0.0000000000000000e+00 0.0000000000000000e+00  1.4905119441000820e-04 -1.3028493968750751e-04 0.0000000000000000e+00  3.1276663169226243e-04 -2.7426544876399465e-04 0.0000000000000000e+00  4.7417770718604908e-04 -4.5814941902961313e-04 0.0000000000000000e+00  6.2370626194770346e-04 -7.6515558117238734e-04 0.0000000000000000e+00  7.6200211696966183e-04 -1.1392783570172448e-03 0.0000000000000000e+00  9.0130641438544419e-04 -1.6080854417115811e-03 0.0000000000000000e+00  1.0212468271532059e-03 -2.1262196134763196e-03 0.0000000000000000e+00  1.1202955064351006e-03 -2.7304618999587126e-03 0.0000000000000000e+00  1.2141917450449256e-03 -3.4032191659581260e-03 0.0000000000000000e+00  1.2915721059114139e-03 -4.1439102698887743e-03 0.0000000000000000e+00  1.3655546383673435e-03 -4.9766967332144901e-03 0.0000000000000000e+00  1.4364110872338786e-03 -5.8245005341135987e-03 0.0000000000000000e+00  1.4726649185873371e-03 -6.7735574284420973e-03 0.0000000000000000e+00  1.5215186050220521e-03 -7.7796570133531820e-03 0.0000000000000000e+00  1.5336334170108867e-03 -8.8339291223510572e-03 0.0000000000000000e+00  1.5377274442324787e-03 -9.9629494093349553e-03 0.0000000000000000e+00  1.5262204355767515e-03 -1.1134023777684287e-02 0.0000000000000000e+00  1.4949365228929595e-03 -1.2376718094335144e-02 0.0000000000000000e+00  1.4461411594731475e-03 -1.3648404639961476e-02 0.0000000000000000e+00  1.3824099409766000e-03 -1.4981389067453943e-02 0.0000000000000000e+00  1.3013268387724556e-03 -1.6356228890816643e-02 0.0000000000000000e+00  1.2017433659568377e-03 -1.7772228499981828e-02 0.0000000000000000e+00  1.0922453188929851e-03 -1.9257644676281951e-02 0.0000000000000000e+00  9.7984605902908385e-04 -2.0753314251913412e-02 0.0000000000000000e+00  8.4011290629474504e-04 -2.2309036532064386e-02 0.0000000000000000e+00  6.8561122359611746e-04 -2.3889478089758352e-02 0.0000000000000000e+00  5.1614890654255003e-04 -2.5515475697065956e-02 0.0000000000000000e+00  3.3160889253508913e-04 -2.7173827414891716e-02 0.0000000000000000e+00  1.3000143585475599e-04 -2.8862459455191440e-02 0.0000000000000000e+00  -8.2671748876776815e-05 -3.0602865091791734e-02 0.0000000000000000e+00  -2.9768346070741149e-04 -3.2348263613767435e-02 0.0000000000000000e+00  -5.4095547954903847e-04 -3.4136035097601512e-02 0.0000000000000000e+00  -7.9427612517435960e-04 -3.5959414757461193e-02 0.0000000000000000e+00  -1.0514081622375253e-03 -3.7790896638813201e-02 0.0000000000000000e+00  -1.3328685006670474e-03 -3.9659806688709699e-02 0.0000000000000000e+00  -1.6148555569134148e-03 -4.1549410316128792e-02 0.0000000000000000e+00  -1.9170461727124528e-03 -4.3460047321027380e-02 0.0000000000000000e+00  -2.2235081185106977e-03 -4.5397961220421022e-02 0.0000000000000000e+00  -2.5454268673859299e-03 -4.7349185414971004e-02 0.0000000000000000e+00  -2.8789776757669459e-03 -4.9322712446483459e-02 0.0000000000000000e+00  -3.2186462557746696e-03 -5.1312365398061791e-02 0.0000000000000000e+00  -3.5670816179633629e-03 -5.3320134814877553e-02 0.0000000000000000e+00  -3.9283270814823032e-03 -5.5342857008812953e-02 0.0000000000000000e+00  -4.2946381348583709e-03 -5.7379293743765707e-02 0.0000000000000000e+00  -4.6691213663678510e-03 -5.9431047027837698e-02 0.0000000000000000e+00  -5.0544092091191779e-03 -6.1494944408541627e-02 0.0000000000000000e+00  -5.4448160801625267e-03 -6.3569686400207145e-02 0.0000000000000000e+00  -5.8421388880386020e-03 -6.5656719557899215e-02 0.0000000000000000e+00  -6.2479180394776207e-03 -6.7752530740009892e-02 0.0000000000000000e+00  -6.6580321871696751e-03 -6.9856734266044829e-02 0.0000000000000000e+00  -7.0737418628329784e-03 -7.1970251958689488e-02 0.0000000000000000e+00  -7.4962042391681317e-03 -7.4090392591431645e-02 0.0000000000000000e+00  -7.9221677064374180e-03 -7.6216663168373375e-02 0.0000000000000000e+00  -8.3526367498414546e-03 -7.8349729584583652e-02 0.0000000000000000e+00  -8.7882777180568888e-03 -8.0487382928057530e-02 0.0000000000000000e+00  -9.2264396056250270e-03 -8.2629529685643022e-02 0.0000000000000000e+00  -9.6680606359529579e-03 -8.4776153687373443e-02 0.0000000000000000e+00  -1.0113122043269645e-02 -8.6925942014656032e-02 0.0000000000000000e+00  -1.0561022343685030e-02 -8.9077972731141902e-02 0.0000000000000000e+00  -1.1011797037695750e-02 -9.1232774031262606e-02 0.0000000000000000e+00  -1.1464438737494847e-02 -9.3389996833794994e-02 0.0000000000000000e+00  -1.1917712382375163e-02 -9.5547463410447689e-02 0.0000000000000000e+00  -1.2373474127104002e-02 -9.7706992249482635e-02 0.0000000000000000e+00  -1.2829821967476946e-02 -9.9867386318859566e-02 0.0000000000000000e+00  -1.3287535305681048e-02 -1.0202808789495681e-01 0.0000000000000000e+00  -1.3746262432830185e-02 -1.0418942523197429e-01 0.0000000000000000e+00  -1.4205337604122717e-02 -1.0635066602409086e-01 0.0000000000000000e+00  -1.4665023423319322e-02 -1.0851196183568450e-01 0.0000000000000000e+00  -1.5124983694267199e-02 -1.1067323563916179e-01 0.0000000000000000e+00  -1.5584971025686647e-02 -1.1283419653819586e-01 0.0000000000000000e+00  -2.4326122095896890e-02 -1.1097305755980814e-01 0.0000000000000000e+00  -2.3865850392289709e-02 -1.0881216160907146e-01 0.0000000000000000e+00  -2.3405388110431434e-02 -1.0665115981373284e-01 0.0000000000000000e+00  -2.2944669034408321e-02 -1.0449029875426881e-01 0.0000000000000000e+00  -2.2483783495477253e-02 -1.0232984060275076e-01 0.0000000000000000e+00  -2.2022601886519090e-02 -1.0016967265336185e-01 0.0000000000000000e+00  -2.1561277694458779e-02 -9.8010637057602726e-02 0.0000000000000000e+00  -2.1099470633537485e-02 -9.5852890523125067e-02 0.0000000000000000e+00  -2.0637902655931524e-02 -9.3696104527901752e-02 0.0000000000000000e+00  -2.0176314992747607e-02 -9.1541884642221197e-02 0.0000000000000000e+00  -1.9714574220176868e-02 -8.9389200789560169e-02 0.0000000000000000e+00  -1.9253869855836676e-02 -8.7239659365579730e-02 0.0000000000000000e+00  -1.8793377552493881e-02 -8.5094537858321523e-02 0.0000000000000000e+00  -1.8332174079601211e-02 -8.2950750559857400e-02 0.0000000000000000e+00  -1.7873205389031251e-02 -8.0812517942236803e-02 0.0000000000000000e+00  -1.7414825562617087e-02 -7.8681368592401019e-02 0.0000000000000000e+00  -1.6955805872665455e-02 -7.6552290531384237e-02 0.0000000000000000e+00  -1.6500751085796597e-02 -7.4431305224689881e-02 0.0000000000000000e+00  -1.6046621195292137e-02 -7.2320014287743109e-02 0.0000000000000000e+00  -1.5591796864107076e-02 -7.0211534994463962e-02 0.0000000000000000e+00  -1.5142726325712020e-02 -6.8114142262170704e-02 0.0000000000000000e+00  -1.4695064393889444e-02 -6.6029585716165407e-02 0.0000000000000000e+00  -1.4246668337762740e-02 -6.3948658405839853e-02 0.0000000000000000e+00  -1.3806042349127903e-02 -6.1882157011287971e-02 0.0000000000000000e+00  -1.3367319026485214e-02 -5.9832317730269632e-02 0.0000000000000000e+00  -1.2928655252240318e-02 -5.7788661275595857e-02 0.0000000000000000e+00  -1.2496966050553256e-02 -5.5760967061743875e-02 0.0000000000000000e+00  -1.2069050447457383e-02 -5.3754775027333709e-02 0.0000000000000000e+00  -1.1641700132107463e-02 -5.1752699594972480e-02 0.0000000000000000e+00  -1.1227218161312086e-02 -4.9772337952467827e-02 0.0000000000000000e+00  -1.0814065751082992e-02 -4.7820079863643963e-02 0.0000000000000000e+00  -1.0400397084540072e-02 -4.5874461570476026e-02 0.0000000000000000e+00  -9.9983087977987290e-03 -4.3956792586258564e-02 0.0000000000000000e+00  -9.6024365879808712e-03 -4.2053222750951712e-02 0.0000000000000000e+00  -9.2126123378998056e-03 -4.0174275205604272e-02 0.0000000000000000e+00  -8.8336873361373677e-03 -3.8325209206602623e-02 0.0000000000000000e+00  -8.4524600788719803e-03 -3.6494223806614261e-02 0.0000000000000000e+00  -8.0840551728575908e-03 -3.4693277246611386e-02 0.0000000000000000e+00  -7.7177924035361075e-03 -3.2919459274664185e-02 0.0000000000000000e+00  -7.3571991708152413e-03 -3.1177109804368150e-02 0.0000000000000000e+00  -7.0071776711684401e-03 -2.9467363302200209e-02 0.0000000000000000e+00  -6.6704004787579360e-03 -2.7781036680213627e-02 0.0000000000000000e+00  -6.3440624441153401e-03 -2.6131993937113802e-02 0.0000000000000000e+00  -6.0080929864375545e-03 -2.4513584689709430e-02 0.0000000000000000e+00  -5.6963082488838386e-03 -2.2934693121348746e-02 0.0000000000000000e+00  -5.3794190118190014e-03 -2.1401400366280656e-02 0.0000000000000000e+00  -5.0824765108587492e-03 -1.9896864694817353e-02 0.0000000000000000e+00  -4.7908588028936641e-03 -1.8443825931355073e-02 0.0000000000000000e+00  -4.5135023099438223e-03 -1.7020253316636095e-02 0.0000000000000000e+00  -4.2478419843646172e-03 -1.5646421757252244e-02 0.0000000000000000e+00  -3.9678232708709668e-03 -1.4310844549108498e-02 0.0000000000000000e+00  -3.7164209895916840e-03 -1.3025086518573092e-02 0.0000000000000000e+00  -3.4540343508342210e-03 -1.1798753420862384e-02 0.0000000000000000e+00  -3.2221552557508359e-03 -1.0613083981916183e-02 0.0000000000000000e+00  -2.9938223747105067e-03 -9.5027773444011712e-03 0.0000000000000000e+00  -2.7614740527532331e-03 -8.4096846499124508e-03 0.0000000000000000e+00  -2.5506281968292015e-03 -7.3969211330722050e-03 0.0000000000000000e+00  -2.3190981594163082e-03 -6.4401669564203056e-03 0.0000000000000000e+00  -2.1201913297869950e-03 -5.5361549425390413e-03 0.0000000000000000e+00  -1.9224491142471154e-03 -4.7128174579097893e-03 0.0000000000000000e+00  -1.7361397252476402e-03 -3.9336044009575747e-03 0.0000000000000000e+00  -1.5588325112663988e-03 -3.2320944804041913e-03 0.0000000000000000e+00  -1.3611112373123693e-03 -2.5843523509712684e-03 0.0000000000000000e+00  -1.1968332708225265e-03 -2.0076959909769805e-03 0.0000000000000000e+00  -1.0076858609032048e-03 -1.5032218458319912e-03 0.0000000000000000e+00  -8.4400507971114837e-04 -1.0838924637146864e-03 0.0000000000000000e+00  -6.5893914948830703e-04 -7.3780812338756845e-04 0.0000000000000000e+00  -4.9188557825416272e-04 -4.4630219739537965e-04 0.0000000000000000e+00  -3.2784824670888650e-04 -2.4250692864522124e-04 0.0000000000000000e+00  -1.6266409473513852e-04 -1.3869167261342294e-04 0.0000000000000000e+00  -2.2600878584849004e-02 -1.1359919303416881e-01 0.0000000000000000e+00  -1.8230374357697515e-02 -1.1452973406327632e-01 0.0000000000000000e+00  1.5052420234598473e-05 -1.3323744682005938e-04 0.0000000000000000e+00  -1.5133836105453335e-02 -8.9230938291073134e-02 0.0000000000000000e+00  -1.7472356555741749e-02 -1.0017856614742648e-01 0.0000000000000000e+00  1.9129940432511839e-05 -1.3327932449450092e-03 0.0000000000000000e+00  -1.2503590566422852e-02 -7.6527122642878156e-02 0.0000000000000000e+00  -1.3847705664749905e-02 -8.2935647961093442e-02 0.0000000000000000e+00  -2.6017701781083917e-04 -3.3567554683396721e-03 0.0000000000000000e+00  -1.9012160957265146e-02 -1.0649374863535914e-01 0.0000000000000000e+00  -3.6211350150872973e-04 -5.9805141300640283e-03 0.0000000000000000e+00  -7.4374848813641987e-04 -1.1789768744410074e-02 0.0000000000000000e+00  -1.1184822898952661e-02 -7.0173106105668806e-02 0.0000000000000000e+00  -1.5415979010856898e-03 -1.6638521895302145e-02 0.0000000000000000e+00  -9.9001623747022351e-03 -6.3893646180017319e-02 0.0000000000000000e+00  -2.1691145622579444e-03 -2.1216058115153359e-02 0.0000000000000000e+00  -3.1173905631650708e-03 -2.7443201967881390e-02 0.0000000000000000e+00  -8.7766599506705883e-03 -5.7529224843682808e-02 0.0000000000000000e+00  -7.4040315747141228e-03 -5.1516828219052117e-02 0.0000000000000000e+00  -3.9053294554764612e-03 -3.2475986532101972e-02 0.0000000000000000e+00  -4.9002688311038317e-03 -3.8028191178519868e-02 0.0000000000000000e+00  -6.2408799424937145e-03 -4.5364456724799856e-02 0.0000000000000000e+00  -5.3171884879452548e-04 -7.9223175397081114e-03 0.0000000000000000e+00  -1.6549426938371647e-02 -9.5884353105574915e-02 0.0000000000000000e+00  -5.5338808653557876e-03 -4.1240728046755999e-02 0.0000000000000000e+00  -1.2067604811479356e-03 -1.4290194178387946e-02 0.0000000000000000e+00  -2.6288596978749973e-03 -2.4613289016549574e-02 0.0000000000000000e+00  -9.8129513127006944e-05 -2.2777952724735134e-03 0.0000000000000000e+00  -2.0356345711816798e-02 -1.1002072152150616e-01 0.0000000000000000e+00  7.9608067173040853e-05 -5.9129073689280845e-04 0.0000000000000000e+00  -7.0738856857293884e-03 -5.4705326998520022e-02 0.0000000000000000e+00  -9.5155110708760732e-03 -6.7071228161905902e-02 0.0000000000000000e+00  -1.0805165569624062e-02 -7.3393993741805358e-02 0.0000000000000000e+00  -4.3082524558283051e-03 -2.9862883284472133e-02 0.0000000000000000e+00  -8.2681375578808735e-03 -6.0833138299625458e-02 0.0000000000000000e+00  -1.2127911506470000e-02 -7.9780099890990289e-02 0.0000000000000000e+00  -5.9441387025668075e-03 -4.8714076737551938e-02 0.0000000000000000e+00  -1.3475108419579334e-02 -8.6211181305453868e-02 0.0000000000000000e+00  -5.2410067592724915e-03 -3.5148470397026156e-02 0.0000000000000000e+00  -2.4947890949199307e-03 -1.8698712843350177e-02 0.0000000000000000e+00  -6.2801199576294697e-04 -4.7258606953716389e-03 0.0000000000000000e+00  -1.9097516177849234e-02 -1.0304969229791178e-01 0.0000000000000000e+00  -1.7059957824166208e-02 -9.2153272668945727e-02 0.0000000000000000e+00  -6.8584454776462927e-05 -9.7437208914958034e-03 0.0000000000000000e+00  -1.3949032854882051e-02 -9.1882883126104112e-02 0.0000000000000000e+00  -1.6513187216635966e-03 -1.0064323190426796e-02 0.0000000000000000e+00  -1.6334678549351625e-02 -8.6602681736021078e-02 0.0000000000000000e+00  -1.4968582766057826e-02 -8.0173858760134525e-02 0.0000000000000000e+00  -1.3619081766551229e-02 -7.3790664459898112e-02 0.0000000000000000e+00  -1.6625834228551517e-02 -1.0457665769641152e-01 0.0000000000000000e+00  3.8863244110126085e-04 -4.4469226581821935e-03 0.0000000000000000e+00  -1.0999116500844942e-02 -6.1237698297267516e-02 0.0000000000000000e+00  -1.2293185700360813e-02 -6.7471413237513558e-02 0.0000000000000000e+00  -2.0734124984035439e-03 -2.9449812672637025e-02 0.0000000000000000e+00  -6.1617835624511186e-04 -1.8302731790922264e-02 0.0000000000000000e+00  -9.3887978389863569e-03 -5.3329548534247005e-02 0.0000000000000000e+00  -8.5416867561790288e-03 -4.9127429564580528e-02 0.0000000000000000e+00  -2.8805282562397810e-03 -3.4733735098040883e-02 0.0000000000000000e+00  -7.2162598451641844e-05 -5.6924327902774864e-05 0.0000000000000000e+00  5.1079403041460121e-05 -4.3633822306282664e-05 0.0000000000000000e+00  -4.4975528690366718e-03 -4.4118378643631141e-02 0.0000000000000000e+00  -3.5425733921365101e-03 -2.2271759210200585e-02 0.0000000000000000e+00  -2.0538148940438838e-03 -1.2572453298876003e-02 0.0000000000000000e+00  -4.7650397942455576e-04 -1.7164856812319144e-03 0.0000000000000000e+00  -6.4152543349778270e-04 -2.9023916761154529e-03 0.0000000000000000e+00  -3.7572911661888017e-03 -4.0233070445574066e-02 0.0000000000000000e+00  -2.4290585872590456e-03 -1.5077654748705477e-02 0.0000000000000000e+00  -4.1500373028998967e-03 -2.5528285184975876e-02 0.0000000000000000e+00  -1.2260234733720179e-03 -7.1271346651360949e-03 0.0000000000000000e+00  -1.5243785082968982e-02 -9.7873729890190428e-02 0.0000000000000000e+00  -1.8632842647855065e-02 -9.7284236145936370e-02 0.0000000000000000e+00  2.9796897492591703e-04 -7.1864821771234107e-03 0.0000000000000000e+00  -3.2919243360663309e-04 -8.1669248259058061e-04 0.0000000000000000e+00  -1.7169785883469475e-02 -1.0895318106085042e-01 0.0000000000000000e+00  -7.6996349438725742e-03 -4.3477508485894274e-02 0.0000000000000000e+00  -6.7772439511891748e-03 -3.9554838047999523e-02 0.0000000000000000e+00  1.6683430185703130e-04 -1.2744392320042557e-02 0.0000000000000000e+00  4.1768956208620018e-04 -1.7220371835159772e-03 0.0000000000000000e+00  4.9613044615974100e-04 -3.0000491251509320e-03 0.0000000000000000e+00  -9.3621942731228209e-04 -2.2703425652661712e-02 0.0000000000000000e+00  4.6598809756223883e-05 -1.5338929719525458e-02 0.0000000000000000e+00  -1.1395671381736732e-03 -2.5922913432086341e-02 0.0000000000000000e+00  -2.0535532070245884e-04 -4.2607938102616792e-04 0.0000000000000000e+00  -1.8121089358271086e-02 -1.1195994664067398e-01 0.0000000000000000e+00  -1.6005939043780112e-02 -8.4030323478659144e-02 0.0000000000000000e+00  -1.4644740857183671e-02 -7.7618192813020126e-02 0.0000000000000000e+00  4.4270928863764249e-04 -5.4467465799460249e-03 0.0000000000000000e+00  -1.3302113369322648e-02 -7.1258776641874702e-02 0.0000000000000000e+00  -1.5879479391117998e-02 -1.0208027475976938e-01 0.0000000000000000e+00  -1.1985594731337307e-02 -6.4971676334511425e-02 0.0000000000000000e+00  -1.0708694261426802e-02 -5.8797202157100964e-02 0.0000000000000000e+00  -6.7777682402866512e-04 -2.0066403111386223e-02 0.0000000000000000e+00  -1.0061662605394652e-02 -5.5648193582827091e-02 0.0000000000000000e+00  -2.2160230262357299e-03 -3.1519944389641626e-02 0.0000000000000000e+00  -8.2844023960626390e-03 -4.6784071400434127e-02 0.0000000000000000e+00  -3.0521411334189165e-03 -3.6908090762696716e-02 0.0000000000000000e+00  -2.1042216331587982e-02 -1.0776511830376101e-01 0.0000000000000000e+00  -1.4220077239932155e-02 -9.4442738001264043e-02 0.0000000000000000e+00  -1.5950036561475933e-03 -8.7596782472073934e-03 0.0000000000000000e+00  3.3556587192537377e-04 -9.0011554412747002e-04 0.0000000000000000e+00  1.7976109841002716e-04 -3.4237663124158968e-04 0.0000000000000000e+00  -5.7341267883823212e-03 -5.2949644766465569e-02 0.0000000000000000e+00  -6.3793812628724408e-03 -3.6712126668615175e-02 0.0000000000000000e+00  -6.8860246538439947e-03 -5.9045048781885871e-02 0.0000000000000000e+00  -1.0705948540797936e-02 -7.7918480024121703e-02 0.0000000000000000e+00  -8.1391238782018982e-03 -6.5243238825018965e-02 0.0000000000000000e+00  -9.4028820379034751e-03 -7.1546543071441440e-02 0.0000000000000000e+00  -5.1802859489658822e-03 -3.1513552947898121e-02 0.0000000000000000e+00  -4.7255176629937071e-03 -4.7029584553322255e-02 0.0000000000000000e+00  -3.3710306735225460e-03 -2.0013184955084536e-02 0.0000000000000000e+00  -4.8439998184850947e-03 -2.8096776835233418e-02 0.0000000000000000e+00  -1.2869281476843988e-02 -8.8511269661216238e-02 0.0000000000000000e+00  -2.9720065800145335e-03 -1.7227906282064599e-02 0.0000000000000000e+00  -1.2324813374611152e-02 -8.4195932538519258e-02 0.0000000000000000e+00  -1.1105726910479580e-03 -5.4964781389132628e-03 0.0000000000000000e+00  -9.1285904210721975e-04 -3.9459776556900117e-03 0.0000000000000000e+00  -2.0470216090578485e-02 -1.0476394727512726e-01 0.0000000000000000e+00  -1.9702173885119943e-02 -1.0073813186198842e-01 0.0000000000000000e+00  -1.0699863638562420e-02 -7.5734670950814334e-02 0.0000000000000000e+00  -9.4036690336725594e-03 -6.9384762936173669e-02 0.0000000000000000e+00  -6.8240309579749286e-03 -5.6885628483617910e-02 0.0000000000000000e+00  -1.1912055468201772e-02 -8.2097335782778738e-02 0.0000000000000000e+00  -8.1485073910545786e-03 -6.3111050352745668e-02 0.0000000000000000e+00  -5.6536972453535500e-03 -5.0850395970006304e-02 0.0000000000000000e+00  -5.4709351973400823e-03 -3.3232766392159191e-02 0.0000000000000000e+00  4.0106675756058897e-04 -8.7366523056868761e-03 0.0000000000000000e+00  -1.8294398829511355e-02 -9.4037884034283009e-02 0.0000000000000000e+00  -1.7358533134767637e-02 -8.9957305846620955e-02 0.0000000000000000e+00 