<?xml version="1.0"?>
<VTKFile type="UnstructuredGrid"  version="0.1"  >
<UnstructuredGrid>
<Piece  NumberOfPoints="439" NumberOfCells="725">
<Points>
<DataArray  type="Float64"  NumberOfComponents="3"  format="ascii">0.5722405975327853 0.07059073926964717 0  0.5814090721107065 0.08850445389374863 0  0.2489897949 0.21 0  0.2489897949 0.19 0  0.5768248768654092 0.07954762798157551 0  0.2496355385699469 0.2060260530378829 0  0.249959460510575 0.2020130349814059 0  0.2499594605105767 0.1979869650186357 0  0.24963553856995 0.1939739469621422 0  0.2540926099211676 0.2098607290391372 0  0.2592110524107498 0.209706213765376 0  0.2643268609293389 0.2095086681660736 0  0.2694294236745519 0.2091791404625758 0  0.2745195267838951 0.2087775513145164 0  0.2796099559297608 0.2082744132217216 0  0.2846792083837945 0.2077183479575967 0  0.2897252220438394 0.2070702117817563 0  0.2947648673131784 0.2063486642206733 0  0.2997859455402304 0.2055545327569208 0  0.3048019950360088 0.204661915438388 0  0.3098144161937746 0.2037531350256185 0  0.3147881969992655 0.2027367145446206 0  0.3197742904622961 0.2016591341154209 0  0.3247202937965561 0.2005307230478183 0  0.3296561934542835 0.1993228342864187 0  0.3345745296458877 0.198070417368796 0  0.3394702292643161 0.1967422520817513 0  0.34434660730971 0.1953836301620084 0  0.3492056456003551 0.1939603238579077 0  0.3540452176983679 0.1924930329904691 0  0.3588641325432937 0.1909826563549258 0  0.3636707279658243 0.189399272815486 0  0.3684739050519337 0.1878051547749035 0  0.3732466237851355 0.1861484758505591 0  0.378003086089592 0.1844662430176944 0  0.3827425203632478 0.1827366157403057 0  0.3874651797726289 0.1809735059334016 0  0.392169080913839 0.1791792580199282 0  0.3968599079725871 0.1773313739823185 0  0.4015480685695465 0.1754783973789612 0  0.4062055563486321 0.173582186625235 0  0.410851556793999 0.1716494492796423 0  0.4154933132567561 0.1697084850272665 0  0.4201087850197939 0.1677296003862877 0  0.4247230602235318 0.1657294784389286 0  0.4293159054118703 0.1637084033525852 0  0.4339035149222235 0.1616595466360299 0  0.4384748977225125 0.1595975861445374 0  0.4430337552538352 0.1575132678046714 0  0.4475858896814681 0.1554127917493076 0  0.452128553939208 0.153294250091472 0  0.4566578176132701 0.1511609786432148 0  0.4611815690314092 0.1490140991689803 0  0.4656966268533455 0.1468520930043018 0  0.4702005045479663 0.1446782397715209 0  0.4746989528427591 0.1424937579204751 0  0.4791901360448446 0.1402972576266972 0  0.4836726786833825 0.1380923018603629 0  0.4881506951664889 0.1358792149036974 0  0.4926229121109719 0.1336571205741982 0  0.4970883116966823 0.1314287229021435 0  0.501550112050494 0.1291944604813734 0  0.5060073109296259 0.126953706219641 0  0.5104593572157297 0.124708649638902 0  0.5149088376962666 0.1224593396736096 0  0.5193548437233243 0.1202058166568374 0  0.5237974457079904 0.1179493647136823 0  0.528237260293161 0.1156908501936448 0  0.5326742594312571 0.1134297835961543 0  0.5371094202543673 0.1111664865615097 0  0.5415439676176389 0.1089029861732399 0  0.5459761067782318 0.1066376119562552 0  0.5504076703010438 0.1043714552672127 0  0.5548379460486559 0.1021050540261881 0  0.559267257109296 0.09983809588089428 0  0.5636962457584508 0.09757124015173876 0  0.568124670041913 0.09530435602261479 0  0.5725528431813744 0.09303750237136127 0  0.5769809998929227 0.09077093974051578 0  0.5678125553007815 0.07285718000549554 0  0.5633846487353622 0.07512367613407953 0  0.5589569224294269 0.07739026615922612 0  0.5545294337431204 0.0796567226666151 0  0.550102094320236 0.0819228040486563 0  0.5456750314454963 0.08418861251629288 0  0.5412480869198514 0.08645336318585162 0  0.5368215746255337 0.0887168996380515 0  0.5323948312903625 0.09097954554791986 0  0.5279680655003305 0.09323977078737941 0  0.5235414292193937 0.09549854215959566 0  0.5191137637274145 0.09775435547780184 0  0.5146858260045467 0.1000059576074806 0  0.5102585588294003 0.1022562650196566 0  0.5058290662839001 0.1045012926829121 0  0.5013988894676555 0.1067394916766891 0  0.4969693135047241 0.1089756663910286 0  0.4925357678919791 0.1112040744228279 0  0.4881011572988372 0.1134230309888369 0  0.4836671999980708 0.1156392112380303 0  0.4792274228393694 0.1178446400465716 0  0.474786029450187 0.1200374207632986 0  0.4703453249753177 0.122226581283306 0  0.4658966753710048 0.1244016139711781 0  0.4614458147679543 0.1265600561433172 0  0.4569947977729795 0.1287122919062585 0  0.4525365271531313 0.130848730820022 0  0.448074019844025 0.1329635771898397 0  0.4436109265639571 0.1350742927702646 0  0.439134392138788 0.1371633704735226 0  0.4346559016200109 0.1392239384235421 0  0.4301778345273432 0.1412776909258855 0  0.4256873870978695 0.1433032739641698 0  0.4211903007345152 0.1453145583776773 0  0.4166864984221553 0.1473007795226339 0  0.412170806760733 0.1492565363248163 0  0.4076571313109477 0.1511936099939481 0  0.4031295205742275 0.1531000175450287 0  0.3985990986038093 0.1549783780447006 0  0.3940621194515188 0.1568242470421553 0  0.3895134356442439 0.1586364752507685 0  0.3849504732836329 0.1604246868057555 0  0.3803757572987601 0.1621742724502381 0  0.3758104738018598 0.1638916065314727 0  0.3712189791626335 0.165568133818034 0  0.3666318670070479 0.1671967042420403 0  0.3620231875593742 0.1687955645093944 0  0.3574077559494998 0.1703403215647072 0  0.3527767206504842 0.1718544107859305 0  0.3481322789753038 0.1733162835380122 0  0.34350232062755 0.1747374338696348 0  0.3388410521847657 0.176106488504739 0  0.3341903360990182 0.1774123604164911 0  0.329506455780204 0.1786757722670795 0  0.3248174347956807 0.1798591950911657 0  0.3201324512079928 0.1810243042024948 0  0.3154231923437982 0.1821044131352271 0  0.310735200292322 0.1831245450070669 0  0.3060115799577901 0.184089103324487 0  0.3012855764912257 0.1849676708013369 0  0.2965468153260961 0.1857994368861476 0  0.2917974835442278 0.1865484072091782 0  0.2870694825183268 0.1872398144580634 0  0.2823049103813512 0.1878556890096972 0  0.2775664059709135 0.1883942802286191 0  0.272799918591049 0.1888420815805342 0  0.2680559006744051 0.189211526424632 0  0.2632922681926417 0.1895228814456849 0  0.2585250459828304 0.1897405357017543 0  0.253758790348245 0.1898513557535506 0  0.5745327821857733 0.07506916111192752 0  0.5791169351079928 0.08402606900436578 0  0.2589887244923277 0.2004097734395496 0  0.5258931667545383 0.1055971348406105 0  0.5483647937993669 0.09408268864942709 0  0.2774659486917691 0.1993668575074659 0  0.4995548937886763 0.1188375090997923 0  0.5128750521286647 0.1121075085968854 0  0.2942143108760055 0.1956981133299785 0  0.5611904694467659 0.08703427526332724 0  0.3099867714696449 0.1935702008469574 0  0.3361081589418558 0.1882219823393698 0  0.4862089318911526 0.1255152174736195 0  0.3534803254278104 0.1822247102075464 0  0.4728278162206706 0.1321205755713842 0  0.3682079798145033 0.1773655009347963 0  0.3862630499460107 0.1707334448338878 0  0.4589101340282517 0.1384641758621624 0  0.4456252536088572 0.1452587875717833 0  0.3998177960750143 0.1654909344180907 0  0.4138764287297028 0.1595121655035479 0  0.4314948398504312 0.1517398429954535 0  0.3196221525869125 0.1915330300131305 0  0.5395644995308371 0.09860766411112711 0  0.4216714610876103 0.1559629107904 0  0.3453507147610079 0.1848782533561981 0  0.3783072201458271 0.1738897674329952 0  0.2859520430079139 0.1976027979938786 0  0.5680689344393476 0.08204565143876565 0  0.2680719657596711 0.2010417831279278 0  0.4533411572218826 0.1441320085605728 0  0.4802350011572547 0.1311098305167253 0  0.493610231704883 0.1244619824092495 0  0.3923777682196204 0.1659262574712931 0  0.4668159625690832 0.1376752032643341 0  0.5069516279069544 0.1177531402726524 0  0.4397978118200927 0.1504531250580943 0  0.5202683429424383 0.1110015114118176 0  0.4061416924597547 0.1603236878779376 0  0.359853482360732 0.17778862364189 0  0.3026712861542561 0.1926937937062604 0  0.5536540366516836 0.08886529496477738 0  0.5311365331513195 0.09967860794219732 0  0.32804431017271 0.1924439240657076 0  0.5323727204275226 0.1066291075295396 0  0.3283913563528967 0.1854050998743289 0  0.5194425418547002 0.1045066105896407 0  0.506143974793526 0.1112555715140389 0  0.4928285539558777 0.1179608958371193 0  0.5584226084744167 0.09334777647697143 0  0.3015707377163463 0.1991104205843403 0  0.4661161198832471 0.1311641834980474 0  0.4794888845054788 0.1246043641363316 0  0.3925695824272387 0.172459296313084 0  0.3596712573956755 0.1843128988122155 0  0.4487236785583436 0.1394967073601598 0  0.4392322131838134 0.1439296927970614 0  0.4064640119168488 0.166855044268222 0  0.2557085109608099 0.1960248978755081 0  0.2550690217554403 0.2033959994978215 0  0.42946254742044 0.1568221136076853 0  0.3706294063055582 0.1724708730882965 0  0.3383257636215534 0.1826175182349739 0  0.2807819489496931 0.1942107050324771 0  0.2905667410333198 0.1929771076005164 0  0.4201749900880571 0.161109711680565 0  0.3474327668294001 0.1799474976926591 0  0.3800713604662286 0.168832173801053 0  0.3152720543630759 0.1885400735355707 0  0.5446587506090842 0.1002859303875245 0  0.5413877997164428 0.0932505943910288 0  0.3165085203317233 0.196172077222383 0  0.2707325639883209 0.1950960704388454 0  0.5676159837289396 0.08959976142877842 0  0.4259435347363206 0.1492407219737455 0  0.4166409407067707 0.153796217783912 0  0.3403254315930925 0.1911570674244241 0  0.2813076468684097 0.2029283587362575 0  0.2919229595791968 0.2015654877743595 0  0.373535196151893 0.1802854104646593 0  0.3498312703504423 0.1887687146170187 0  0.3830297118256261 0.1774999220557238 0  0.2645925881248021 0.1957530873700943 0  0.5735943844716291 0.08576941533146762 0  0.5140025974309017 0.1067292229556498 0  0.5006990044718564 0.1134622444927312 0  0.3074316790355506 0.1985117035723188 0  0.4873764373048965 0.1201445948003375 0  0.5534333012961473 0.09643498261468658 0  0.474026899694937 0.1267566553474803 0  0.4606791947904194 0.1332525838697576 0  0.365405671
[...]
<PointData  Vectors="f_20-1"> 
<DataArray  type="Float64"  Name="f_20-1"  NumberOfComponents="3" format="ascii">-2.7759402467214766e-02 -1.1940926073035277e-01 0.0000000000000000e+00  -1.8590927889293334e-02 -1.2149554610625138e-01 0.0000000000000000e+00  0.0000000000000000e+00 0.0000000000000000e+00 0.0000000000000000e+00  0.0000000000000000e+00 0.0000000000000000e+00 0.0000000000000000e+00  -2.3175123134590605e-02 -1.2045237201842453e-01 0.0000000000000000e+00  0.0000000000000000e+00 0.0000000000000000e+00 0.0000000000000000e+00  0.0000000000000000e+00 0.0000000000000000e+00 0.0000000000000000e+00  0.0000000000000000e+00 0.0000000000000000e+00 0.0000000000000000e+00  0.0000000000000000e+00 0.0000000000000000e+00 0.0000000000000000e+00  1.5900931553818130e-04 -1.3927096086281145e-04 0.0000000000000000e+00  3.3364609949556028e-04 -2.9378623462402814e-04 0.0000000000000000e+00  5.0564891244680218e-04 -4.9133183392630747e-04 0.0000000000000000e+00  6.6440595202197999e-04 -8.2085953742412014e-04 0.0000000000000000e+00  8.1070335573821457e-04 -1.2224486854835743e-03 0.0000000000000000e+00  9.5732679598548682e-04 -1.7255867782783839e-03 0.0000000000000000e+00  1.0827735444007029e-03 -2.2816520424032401e-03 0.0000000000000000e+00  1.1849814988228657e-03 -2.9297882182437169e-03 0.0000000000000000e+00  1.2808210625261736e-03 -3.6513357793267294e-03 0.0000000000000000e+00  1.3580935839596704e-03 -4.4454672430793143e-03 0.0000000000000000e+00  1.4303373741090283e-03 -5.3380845616120094e-03 0.0000000000000000e+00  1.4989528262565350e-03 -6.2468649743814943e-03 0.0000000000000000e+00  1.5289279261290357e-03 -7.2632854553794004e-03 0.0000000000000000e+00  1.5712156835411746e-03 -8.3408658845791021e-03 0.0000000000000000e+00  1.5734133121828888e-03 -9.4692769521816621e-03 0.0000000000000000e+00  1.5655072642918127e-03 -1.0677165713581314e-02 0.0000000000000000e+00  1.5400377502669635e-03 -1.1929582631203927e-02 0.0000000000000000e+00  1.4919316630876995e-03 -1.3257747918248703e-02 0.0000000000000000e+00  1.4245040028523842e-03 -1.4616369837991633e-02 0.0000000000000000e+00  1.3397365878791293e-03 -1.6039676142092250e-02 0.0000000000000000e+00  1.2355029802734228e-03 -1.7506967009530899e-02 0.0000000000000000e+00  1.1106121195810178e-03 -1.9017343645074184e-02 0.0000000000000000e+00  9.7340183649317728e-04 -2.0600727184513987e-02 0.0000000000000000e+00  8.3277321698412043e-04 -2.2194845225096498e-02 0.0000000000000000e+00  6.6168624455656660e-04 -2.3851524149440834e-02 0.0000000000000000e+00  4.7434284340432104e-04 -2.5533756982305544e-02 0.0000000000000000e+00  2.6997141143575036e-04 -2.7263384259694309e-02 0.0000000000000000e+00  4.8825115195143979e-05 -2.9026494066598345e-02 0.0000000000000000e+00  -1.9107944922408017e-04 -3.0820741980071710e-02 0.0000000000000000e+00  -4.4405809608348481e-04 -3.2668626017681474e-02 0.0000000000000000e+00  -6.9970320475208712e-04 -3.4521602621038774e-02 0.0000000000000000e+00  -9.8602113127867512e-04 -3.6417813374765004e-02 0.0000000000000000e+00  -1.2838263915320380e-03 -3.8350550720357632e-02 0.0000000000000000e+00  -1.5858756343956029e-03 -4.0291514972733512e-02 0.0000000000000000e+00  -1.9142095769698335e-03 -4.2270399613712310e-02 0.0000000000000000e+00  -2.2437400788599552e-03 -4.4270521561071391e-02 0.0000000000000000e+00  -2.5947005961548530e-03 -4.6291596647414744e-02 0.0000000000000000e+00  -2.9508967914538544e-03 -4.8340453363970019e-02 0.0000000000000000e+00  -3.3233196968203904e-03 -5.0402413855462583e-02 0.0000000000000000e+00  -3.7082678711614333e-03 -5.2486732195328546e-02 0.0000000000000000e+00  -4.0999391491765074e-03 -5.4587208250692375e-02 0.0000000000000000e+00  -4.5010805970783496e-03 -5.6705749908527982e-02 0.0000000000000000e+00  -4.9156226286459232e-03 -5.8839021356785134e-02 0.0000000000000000e+00  -5.3356769161573133e-03 -6.0985900831019679e-02 0.0000000000000000e+00  -5.7644247998542434e-03 -6.3147906995698083e-02 0.0000000000000000e+00  -6.2043528109005331e-03 -6.5321760228479075e-02 0.0000000000000000e+00  -6.6497102217542414e-03 -6.7506242079524881e-02 0.0000000000000000e+00  -7.1023327253313890e-03 -6.9702742373302776e-02 0.0000000000000000e+00  -7.5635957924241430e-03 -7.1907698139637002e-02 0.0000000000000000e+00  -8.0293850149721138e-03 -7.4120785096302530e-02 0.0000000000000000e+00  -8.5009737761178213e-03 -7.6342879425801785e-02 0.0000000000000000e+00  -8.9793798960669663e-03 -7.8571277097856496e-02 0.0000000000000000e+00  -9.4613852478932572e-03 -8.0805539518626582e-02 0.0000000000000000e+00  -9.9479920743776595e-03 -8.3046293780358951e-02 0.0000000000000000e+00  -1.0439751493911726e-02 -8.5291350361098001e-02 0.0000000000000000e+00  -1.0934076719033618e-02 -8.7540660326390393e-02 0.0000000000000000e+00  -1.1431876397614756e-02 -8.9794183343162609e-02 0.0000000000000000e+00  -1.1933080118608396e-02 -9.2050635286317739e-02 0.0000000000000000e+00  -1.2437071239075915e-02 -9.4309149806355214e-02 0.0000000000000000e+00  -1.2943877806595580e-02 -9.6570216403845693e-02 0.0000000000000000e+00  -1.3452522689123617e-02 -9.8833513438490297e-02 0.0000000000000000e+00  -1.3961781031506734e-02 -1.0109701382676013e-01 0.0000000000000000e+00  -1.4473447576556402e-02 -1.0336238804374480e-01 0.0000000000000000e+00  -1.4985689759404281e-02 -1.0562854473278731e-01 0.0000000000000000e+00  -1.5499219717455789e-02 -1.0789494597381183e-01 0.0000000000000000e+00  -1.6013714362449881e-02 -1.1016190411910566e-01 0.0000000000000000e+00  -1.6528531418932655e-02 -1.1242875984826123e-01 0.0000000000000000e+00  -1.7043912841120983e-02 -1.1469564397738521e-01 0.0000000000000000e+00  -1.7559545407306351e-02 -1.1696249762863875e-01 0.0000000000000000e+00  -1.8075194401417766e-02 -1.1922906025948415e-01 0.0000000000000000e+00  -2.7243638993601823e-02 -1.1714281999450443e-01 0.0000000000000000e+00  -2.6727739853395972e-02 -1.1487632386592043e-01 0.0000000000000000e+00  -2.6211660453692345e-02 -1.1260973384077390e-01 0.0000000000000000e+00  -2.5695343434352327e-02 -1.1034327733338489e-01 0.0000000000000000e+00  -2.5178877151615469e-02 -1.0807719595134371e-01 0.0000000000000000e+00  -2.4662134320734552e-02 -1.0581138748370715e-01 0.0000000000000000e+00  -2.4145273140766754e-02 -1.0354663681414844e-01 0.0000000000000000e+00  -2.3627979729455188e-02 -1.0128310036194849e-01 0.0000000000000000e+00  -2.3110917358995720e-02 -9.9020454452080103e-02 0.0000000000000000e+00  -2.2593877443372903e-02 -9.6760229212620563e-02 0.0000000000000000e+00  -2.2076708018710582e-02 -9.4501457840404313e-02 0.0000000000000000e+00  -2.1560567805090216e-02 -9.2245644522198147e-02 0.0000000000000000e+00  -2.1044699822349230e-02 -8.9994042392519361e-02 0.0000000000000000e+00  -2.0528161291862624e-02 -8.7743734980343366e-02 0.0000000000000000e+00  -2.0013848131762796e-02 -8.5498707317087891e-02 0.0000000000000000e+00  -1.9500219242368767e-02 -8.3260508323310931e-02 0.0000000000000000e+00  -1.8985989499697667e-02 -8.1024333608971377e-02 0.0000000000000000e+00  -1.8475729406843607e-02 -7.8795925577172118e-02 0.0000000000000000e+00  -1.7966534294380533e-02 -7.6576969011163051e-02 0.0000000000000000e+00  -1.7456685889509781e-02 -7.4360788761969679e-02 0.0000000000000000e+00  -1.6952657342602644e-02 -7.2155359953428450e-02 0.0000000000000000e+00  -1.6450245026166058e-02 -6.9962579236701405e-02 0.0000000000000000e+00  -1.5947143795416552e-02 -6.7773418716693956e-02 0.0000000000000000e+00  -1.5451987694099898e-02 -6.5598386028821856e-02 0.0000000000000000e+00  -1.4959042591542369e-02 -6.3439943856682862e-02 0.0000000000000000e+00  -1.4466253880888909e-02 -6.1287708093741469e-02 0.0000000000000000e+00  -1.3980718795124282e-02 -5.9151269179977942e-02 0.0000000000000000e+00  -1.3499420398609940e-02 -5.7036422810160331e-02 0.0000000000000000e+00  -1.3018707973053290e-02 -5.4925707229735353e-02 0.0000000000000000e+00  -1.2551436692592930e-02 -5.2836629526477399e-02 0.0000000000000000e+00  -1.2086121505760673e-02 -5.0776061576457983e-02 0.0000000000000000e+00  -1.1620382892803326e-02 -4.8722309074114484e-02 0.0000000000000000e+00  -1.1167024616660194e-02 -4.6696726035830229e-02 0.0000000000000000e+00  -1.0720305274397870e-02 -4.4685441622322700e-02 0.0000000000000000e+00  -1.0280301881131385e-02 -4.2699220477366191e-02 0.0000000000000000e+00  -9.8521878369151362e-03 -4.0743463675183680e-02 0.0000000000000000e+00  -9.4220575810578418e-03 -3.8806390006051919e-02 0.0000000000000000e+00  -9.0058626121318694e-03 -3.6899982454971343e-02 0.0000000000000000e+00  -8.5924788768902347e-03 -3.5021621955299440e-02 0.0000000000000000e+00  -8.1856523235291166e-03 -3.3175752957844688e-02 0.0000000000000000e+00  -7.7905304251461626e-03 -3.1363524749231479e-02 0.0000000000000000e+00  -7.4096870801218517e-03 -2.9575313194244487e-02 0.0000000000000000e+00  -7.0405973593481320e-03 -2.7825727549761894e-02 0.0000000000000000e+00  -6.6620751506224502e-03 -2.6108393468527332e-02 0.0000000000000000e+00  -6.3097640841921600e-03 -2.4431866181966085e-02 0.0000000000000000e+00  -5.9530705341292811e-03 -2.2803295757959665e-02 0.0000000000000000e+00  -5.6179442761344041e-03 -2.1204435490605644e-02 0.0000000000000000e+00  -5.2895701803615559e-03 -1.9659678435292791e-02 0.0000000000000000e+00  -4.9767997737266171e-03 -1.8145589214069450e-02 0.0000000000000000e+00  -4.6774357432852109e-03 -1.6683716461987755e-02 0.0000000000000000e+00  -4.3635883853808954e-03 -1.5262566130365215e-02 0.0000000000000000e+00  -4.0810511225263298e-03 -1.3893511495261048e-02 0.0000000000000000e+00  -3.7879615026353854e-03 -1.2587639583508838e-02 0.0000000000000000e+00  -3.5280361158111949e-03 -1.1324227732920578e-02 0.0000000000000000e+00  -3.2732513946943757e-03 -1.0140804908834348e-02 0.0000000000000000e+00  -3.0144292767243651e-03 -8.9756957975051527e-03 0.0000000000000000e+00  -2.7798824352610590e-03 -7.8955868647728883e-03 0.0000000000000000e+00  -2.5240687810792342e-03 -6.8754549929331060e-03 0.0000000000000000e+00  -2.3038834099680123e-03 -5.9108966755129994e-03 0.0000000000000000e+00  -2.0860811708940299e-03 -5.0323291986631193e-03 0.0000000000000000e+00  -1.8810366303852240e-03 -4.2005631138523911e-03 0.0000000000000000e+00  -1.6865627066151077e-03 -3.4515927908218159e-03 0.0000000000000000e+00  -1.4707580268606096e-03 -2.7601855419365573e-03 0.0000000000000000e+00  -1.2915244581783801e-03 -2.1443109903028063e-03 0.0000000000000000e+00  -1.0862231629581503e-03 -1.6057197713809303e-03 0.0000000000000000e+00  -9.0890483717534531e-04 -1.1579184194657770e-03 0.0000000000000000e+00  -7.0911704818093829e-04 -7.8847357536807885e-04 0.0000000000000000e+00  -5.2894382430597442e-04 -4.7711855431508462e-04 0.0000000000000000e+00  -3.5236032847903116e-04 -2.5946429824574103e-04 0.0000000000000000e+00  -1.7481025741282756e-04 -1.4864424644941504e-04 0.0000000000000000e+00  -2.5467217814226683e-02 -1.1993083888805073e-01 0.0000000000000000e+00  -2.0883064892007263e-02 -1.2097393099560713e-01 0.0000000000000000e+00  1.5297960678462398e-05 -1.4261590329074108e-04 0.0000000000000000e+00  -1.7253067630769336e-02 -9.4402865159358459e-02 0.0000000000000000e+00  -1.9874995677449058e-02 -1.0588776993147161e-01 0.0000000000000000e+00  1.4555979966711464e-05 -1.4273344347267005e-03 0.0000000000000000e+00  -1.4294689588220380e-02 -8.1064833549299636e-02 0.0000000000000000e+00  -1.5805948365073184e-02 -8.7794834052211529e-02 0.0000000000000000e+00  -2.9658432975930137e-04 -3.5930775105601446e-03 0.0000000000000000e+00  -2.1587613691726754e-02 -1.1250870483700762e-01 0.0000000000000000e+00  -4.2606818728073388e-04 -6.4002577339403776e-03 0.0000000000000000e+00  -8.9201659999931567e-04 -1.2607478904027003e-02 0.0000000000000000e+00  -1.2809234368893418e-02 -7.4387125175470706e-02 0.0000000000000000e+00  -1.8012921430939574e-03 -1.7775289792514467e-02 0.0000000000000000e+00  -1.1358932922521946e-02 -6.7781767077700672e-02 0.0000000000000000e+00  -2.5293915760518089e-03 -2.2648736760572576e-02 0.0000000000000000e+00  -3.6252075642389018e-03 -2.9266555166195030e-02 0.0000000000000000e+00  -1.0075621021021827e-02 -6.1077496563506972e-02 0.0000000000000000e+00  -8.5324780753394183e-03 -5.4741212428126552e-02 0.0000000000000000e+00  -4.5356953268187372e-03 -3.4606722932833719e-02 0.0000000000000000e+00  -5.6746630142540996e-03 -4.0487834496557788e-02 0.0000000000000000e+00  -7.2071380140199207e-03 -4.8245919309223721e-02 0.0000000000000000e+00  -6.2512243875775819e-04 -8.4758542015093453e-03 0.0000000000000000e+00  -1.8840854577247868e-02 -1.0138345167423059e-01 0.0000000000000000e+00  -6.3952536011031257e-03 -4.3885994030424098e-02 0.0000000000000000e+00  -1.4152798655394214e-03 -1.5272841823239311e-02 0.0000000000000000e+00  -3.0654144200637510e-03 -2.6261327746456904e-02 0.0000000000000000e+00  -1.1629468429582249e-04 -2.4387465767396151e-03 0.0000000000000000e+00  -2.3053446738771920e-02 -1.1619926449610875e-01 0.0000000000000000e+00  8.2649613808538706e-05 -6.3334251880129994e-04 0.0000000000000000e+00  -8.2322830207452458e-03 -5.8118354768227506e-02 0.0000000000000000e+00  -1.1001273319090751e-02 -7.1140532812083795e-02 0.0000000000000000e+00  -1.2457459888315398e-02 -7.7788380919562333e-02 0.0000000000000000e+00  -4.9261978490569179e-03 -3.1823379199903377e-02 0.0000000000000000e+00  -9.5888947904064700e-03 -6.4575160064471074e-02 0.0000000000000000e+00  -1.3947480803090842e-02 -8.4497223056165957e-02 0.0000000000000000e+00  -6.9442113056730551e-03 -5.1797238270705717e-02 0.0000000000000000e+00  -1.5462182884446608e-02 -9.1248851917002230e-02 0.0000000000000000e+00  -5.9936907257770212e-03 -3.7425948793259993e-02 0.0000000000000000e+00  -2.8438437686032617e-03 -1.9961013029301845e-02 0.0000000000000000e+00  -7.0037150763996563e-04 -5.0558429649264734e-03 0.0000000000000000e+00  -2.1626934820139231e-02 -1.0888434170637289e-01 0.0000000000000000e+00  -1.9323322767736659e-02 -9.7449870531569394e-02 0.0000000000000000e+00  -1.4846304197413296e-04 -1.0427597460532938e-02 0.0000000000000000e+00  -1.6045181622223525e-02 -9.7211214039936628e-02 0.0000000000000000e+00  -1.8433707311021480e-03 -1.0754578556220282e-02 0.0000000000000000e+00  -1.8478543369111065e-02 -9.1618571074770269e-02 0.0000000000000000e+00  -1.6945693313439387e-02 -8.4869610150366856e-02 0.0000000000000000e+00  -1.5429697034244547e-02 -7.8164285827290458e-02 0.0000000000000000e+00  -1.9048922394292938e-02 -1.1052704185861725e-01 0.0000000000000000e+00  3.8963945139147606e-04 -4.7643977512534874e-03 0.0000000000000000e+00  -1.2479296873163990e-02 -6.4960998166356615e-02 0.0000000000000000e+00  -1.3937949367788265e-02 -7.1520817528074737e-02 0.0000000000000000e+00  -2.5438242445243492e-03 -3.1415522022512576e-02 0.0000000000000000e+00  -8.3550933673626746e-04 -1.9561919523379542e-02 0.0000000000000000e+00  -1.0659202287371015e-02 -5.6628474304239500e-02 0.0000000000000000e+00  -9.7003693388670389e-03 -5.2195488867339268e-02 0.0000000000000000e+00  -3.4808118717732177e-03 -3.7019774067377040e-02 0.0000000000000000e+00  -7.7789019387061980e-05 -6.0939150221362206e-05 0.0000000000000000e+00  5.4285724500380878e-05 -4.6643501289953992e-05 0.0000000000000000e+00  -5.3406002260287487e-03 -4.6951644156470101e-02 0.0000000000000000e+00  -4.0067953028517771e-03 -2.3755369147558839e-02 0.0000000000000000e+00  -2.3000729648769177e-03 -1.3429273959015090e-02 0.0000000000000000e+00  -5.1821916929021682e-04 -1.8360871615731320e-03 0.0000000000000000e+00  -7.0189771066954854e-04 -3.1045252644117619e-03 0.0000000000000000e+00  -4.4955434939319442e-03 -4.2843496125389464e-02 0.0000000000000000e+00  -2.7294089035128726e-03 -1.6099294501528680e-02 0.0000000000000000e+00  -4.6974552060407657e-03 -2.7214618393182993e-02 0.0000000000000000e+00  -1.3603141752801967e-03 -7.6193850277993655e-03 0.0000000000000000e+00  -1.7496250496256849e-02 -1.0349571887237460e-01 0.0000000000000000e+00  -2.1053587985534136e-02 -1.0282559797010890e-01 0.0000000000000000e+00  2.6901674841043672e-04 -7.6958785200860972e-03 0.0000000000000000e+00  -3.5614943244128384e-04 -8.7357389373839448e-04 0.0000000000000000e+00  -1.9685453911420625e-02 -1.1512302667430388e-01 0.0000000000000000e+00  -8.7244219079501487e-03 -4.6224423981505759e-02 0.0000000000000000e+00  -7.6887097010279104e-03 -4.2079480309994192e-02 0.0000000000000000e+00  6.9480509740248891e-05 -1.3636982604668198e-02 0.0000000000000000e+00  4.3915419231638176e-04 -1.8458830450081508e-03 0.0000000000000000e+00  5.1525626532459060e-04 -3.2154639327359852e-03 0.0000000000000000e+00  -1.2361964586002402e-03 -2.4249443580196064e-02 0.0000000000000000e+00  -9.0378539444380029e-05 -1.6406626701611714e-02 0.0000000000000000e+00  -1.4985770036036608e-03 -2.7675419262912199e-02 0.0000000000000000e+00  -2.2189842070308087e-04 -4.5588692854311313e-04 0.0000000000000000e+00  -2.0730379894660117e-02 -1.1827212702745057e-01 0.0000000000000000e+00  -1.8094663614712729e-02 -8.8915286949437469e-02 0.0000000000000000e+00  -1.6566839456916040e-02 -8.2182265412354211e-02 0.0000000000000000e+00  4.3935347528475439e-04 -5.8350998149363656e-03 0.0000000000000000e+00  -1.5057989507030000e-02 -7.5499915104748905e-02 0.0000000000000000e+00  -1.8227002277287831e-02 -1.0791182077258954e-01 0.0000000000000000e+00  -1.3576110000137101e-02 -6.8887854557602851e-02 0.0000000000000000e+00  -1.2136002739207076e-02 -6.2387663021231873e-02 0.0000000000000000e+00  -9.2450620775335528e-04 -2.1441978847602652e-02 0.0000000000000000e+00  -1.1405391613187316e-02 -5.9069733082953366e-02 0.0000000000000000e+00  -2.7260681314987311e-03 -3.3614495811574642e-02 0.0000000000000000e+00  -9.3928465119091156e-03 -4.9718394485204993e-02 0.0000000000000000e+00  -3.6961058327366534e-03 -3.9325858695460493e-02 0.0000000000000000e+00  -2.3741919640182945e-02 -1.1381632806857510e-01 0.0000000000000000e+00  -1.6368327734521577e-02 -9.9900891802251826e-02 0.0000000000000000e+00  -1.7701423312956072e-03 -9.3610493678378918e-03 0.0000000000000000e+00  3.5539492870718779e-04 -9.6489396714617996e-04 0.0000000000000000e+00  1.9088165545453557e-04 -3.6684566312710778e-04 0.0000000000000000e+00  -6.7878752707417039e-03 -5.6281954031187589e-02 0.0000000000000000e+00  -7.2250432561492143e-03 -3.9069060869742191e-02 0.0000000000000000e+00  -8.1010480826090615e-03 -6.2707370594033016e-02 0.0000000000000000e+00  -1.2421287041414559e-02 -8.2557397717428538e-02 0.0000000000000000e+00  -9.5206265928903348e-03 -6.9232471293768028e-02 0.0000000000000000e+00  -1.0950804708971352e-02 -7.5861839299672190e-02 0.0000000000000000e+00  -5.8766474040490482e-03 -3.3565520143145421e-02 0.0000000000000000e+00  -5.6275566371650409e-03 -5.0031976012168987e-02 0.0000000000000000e+00  -3.7947870588562710e-03 -2.1351076280775070e-02 0.0000000000000000e+00  -5.4712353374931190e-03 -2.9937584765129907e-02 0.0000000000000000e+00  -1.4858545283772973e-02 -9.3678839627071547e-02 0.0000000000000000e+00  -3.3346303733371536e-03 -1.8386582653076203e-02 0.0000000000000000e+00  -1.4220938730632049e-02 -8.9144333493755598e-02 0.0000000000000000e+00  -1.2228922458403801e-03 -5.8765342912964385e-03 0.0000000000000000e+00  -9.9945407122694783e-04 -4.2194299305681176e-03 0.0000000000000000e+00  -2.3096185396150718e-02 -1.1066754620478718e-01 0.0000000000000000e+00  -2.2229231086637481e-02 -1.0644361519468779e-01 0.0000000000000000e+00  -1.2381891787680156e-02 -8.0256719012628597e-02 0.0000000000000000e+00  -1.0918647242685663e-02 -7.3582460869173319e-02 0.0000000000000000e+00  -8.0019900748169240e-03 -6.0426739791515527e-02 0.0000000000000000e+00  -1.3754849892258815e-02 -8.6940796693583747e-02 0.0000000000000000e+00  -9.4976803752068930e-03 -6.6982036852619622e-02 0.0000000000000000e+00  -6.6700635621569698e-03 -5.4062473623483855e-02 0.0000000000000000e+00  -6.2100958134152515e-03 -3.5388041435212327e-02 0.0000000000000000e+00  3.6393755222263274e-04 -9.3550968941804105e-03 0.0000000000000000e+00  -2.0649983665188998e-02 -9.9414785599863484e-02 0.0000000000000000e+00  -1.9605372194117312e-02 -9.5134387108299023e-02 0.0000000000000000e+0