<?xml version="1.0"?>
<VTKFile type="UnstructuredGrid"  version="0.1"  >
<UnstructuredGrid>
<Piece  NumberOfPoints="439" NumberOfCells="725">
<Points>
<DataArray  type="Float64"  NumberOfComponents="3"  format="ascii">0.5881274424688272 0.1104903716105807 0  0.5941855071067501 0.1297177393716845 0  0.2489897949 0.21 0  0.2489897949 0.19 0  0.5911565400621757 0.1201040711074666 0  0.2496355385699469 0.2060260530378829 0  0.249959460510575 0.2020130349814059 0  0.2499594605105767 0.1979869650186357 0  0.24963553856995 0.1939739469621422 0  0.2540446243313634 0.2099026976752301 0  0.2591096947426166 0.2097969477486207 0  0.2641730355965202 0.2096624791845386 0  0.2692282617148926 0.2094390234974922 0  0.2742756942592278 0.2091676656707708 0  0.2793248253713259 0.2088284199586843 0  0.2843605548992001 0.2084543043132207 0  0.2893826111866669 0.2080186077695934 0  0.2944022849979695 0.2075345800697847 0  0.2994116714910622 0.2070025346992544 0  0.3044210821525653 0.2064060506326191 0  0.3094285131476058 0.2057994650150187 0  0.3144146982218051 0.2051213608944526 0  0.3194116595295255 0.2044046120109062 0  0.3243846220372982 0.2036535674599055 0  0.3293550831596519 0.2028512185439241 0  0.3343164648896911 0.2020197864026682 0  0.3392675360033473 0.2011388628373136 0  0.3442080132131106 0.2002379938872521 0  0.3491414262416573 0.1992951392494264 0  0.354065297042443 0.1983235469209476 0  0.3589790553417013 0.1973237209359316 0  0.3638903646780324 0.1962773839357441 0  0.3688002738759333 0.1952244928470787 0  0.3736958536036976 0.1941303964709663 0  0.3785833824748111 0.1930195282129974 0  0.3834642135617387 0.1918780205170836 0  0.3883374997762741 0.1907146529981149 0  0.3932019752068893 0.1895306976640412 0  0.3980633781965849 0.1883127693192475 0  0.4029235998489559 0.1870917644476589 0  0.4077691505172789 0.1858415535024334 0  0.4126114089470863 0.1845681756928709 0  0.4174519209378375 0.1832895756578188 0  0.4222803919530701 0.1819853929832944 0  0.4271104550759049 0.180668429705609 0  0.4319298470137001 0.179336649813103 0  0.4367492170189504 0.1779876835569757 0  0.4415603225891851 0.176629163170318 0  0.4463665249092579 0.17525589312438 0  0.4511706429820601 0.1738722855537854 0  0.455971296478602 0.1724768427852147 0  0.4607657643039402 0.1710710800239403 0  0.465558692638844 0.169656627973613 0  0.4703483861642176 0.1682321536057331 0  0.4751329746294522 0.1667992865283736 0  0.479915772075669 0.1653594825450023 0  0.4846958813774766 0.1639116539057631 0  0.4894720291484695 0.1624577243759998 0  0.4942466482556198 0.1609984323372339 0  0.4990191105841454 0.159533067113314 0  0.5037884454968331 0.1580630761911616 0  0.5085565219404395 0.156589168202897 0  0.5133228386372134 0.1551108144068133 0  0.5180867547339785 0.1536292152695413 0  0.5228498100499083 0.1521447806325482 0  0.5276114593552128 0.1506573862473699 0  0.5323715555037972 0.1491677942275657 0  0.5371303303215225 0.1476765913082671 0  0.5418878423622764 0.1461834861783562 0  0.5466446195076873 0.1446888161481166 0  0.5514010682517819 0.1431939492500898 0  0.556156381575637 0.1416976267817059 0  0.56091147165693 0.1402007795955566 0  0.5656658352278647 0.1387035898940484 0  0.5704196844601754 0.1372059424989477 0  0.5751733178315525 0.1357083064575829 0  0.5799265836548957 0.1342105799278285 0  0.5846796457154418 0.132712836064543 0  0.5894326330018008 0.1312152717753721 0  0.5833746294666903 0.1119879890297235 0  0.5786218275044515 0.1134856780860942 0  0.5738690938941603 0.1149834514779785 0  0.5691164727984173 0.1164812128921898 0  0.5643639595881562 0.1179787982965386 0  0.5596116197037367 0.1194762721943367 0  0.5548594809249338 0.1209731707439503 0  0.5501077695897555 0.1224694464520555 0  0.5453560409772448 0.123965171655465 0  0.5406046590470502 0.1254595010440893 0  0.5358535656782791 0.1269530057010506 0  0.5311023106114214 0.12844463017539 0  0.5263515364959315 0.1299337578094329 0  0.5216013474534531 0.1314222375493556 0  0.516850645819991 0.1329072867300988 0  0.5121005610171031 0.134388225326369 0  0.5073511269017975 0.1358680634851185 0  0.5026004973310105 0.1373427435947896 0  0.497850608523248 0.1388116960840725 0  0.4931015020781283 0.1402790963354124 0  0.4883504892961202 0.1417393109386444 0  0.4836002837847981 0.1431918088028133 0  0.4788509854472378 0.1446422389527081 0  0.4740989151346654 0.146083195010472 0  0.4693477456114095 0.1475139844806492 0  0.4645973007372798 0.1489410278925695 0  0.4598446202722508 0.1503577044739016 0  0.4550921577864658 0.1517609261177044 0  0.450339884715123 0.153161558090746 0  0.4455822879503974 0.1545475521622628 0  0.4408269621538201 0.1559162027525144 0  0.4360727022165066 0.1572807252236798 0  0.4313143526121609 0.1586268337900938 0  0.4265536538002066 0.1599634716164676 0  0.421791763851868 0.1612841729711078 0  0.4170260625751496 0.162585075137887 0  0.4122636031671454 0.1638747686397288 0  0.4074959596933439 0.1651442885028514 0  0.4027295044461865 0.1663963088792201 0  0.3979623588432027 0.1676277127858823 0  0.3931914071357364 0.1688372212058707 0  0.3884140832250419 0.170030463966558 0  0.3836331675787354 0.1711987132668971 0  0.3788609483358953 0.1723477455580898 0  0.3740762434381441 0.1734690008766261 0  0.3692983440757378 0.1745606893906559 0  0.364509607908991 0.1756318148508065 0  0.3597209532751944 0.1766683750360569 0  0.3549250616920271 0.1776842480294005 0  0.3501246961437233 0.1786660536897765 0  0.3453362942927415 0.1796228985025433 0  0.340531892065248 0.1805442799698793 0  0.3357383333796383 0.1814259344198737 0  0.3309265396581574 0.1822780311463867 0  0.3261162267088252 0.1830782048614653 0  0.3213096051330695 0.1838663881870425 0  0.3164921711725227 0.1845981561001812 0  0.3116913773951928 0.185291572804239 0  0.3068704165610144 0.1859468139985491 0  0.3020517937083124 0.1865453138072179 0  0.2972269637057287 0.1871120778047974 0  0.2923984270254403 0.1876235531100028 0  0.2875858968040485 0.1880971224048109 0  0.2827519194461151 0.1885188812797958 0  0.2779374399655481 0.1888893941151359 0  0.2731067501600651 0.1891978395168928 0  0.2682929877748785 0.1894534431039999 0  0.2634673197339025 0.1896688609367236 0  0.2586406127067198 0.1898200356914047 0  0.2538157640708409 0.1898980007081558 0  0.5896420437494491 0.1152972107878384 0  0.5926710137359532 0.1249109120996767 0  0.2589867587126952 0.200452055639705 0  0.5364938497685504 0.1373168386851529 0  0.5606134965804256 0.1296974064458986 0  0.2774792685506616 0.1998147414668352 0  0.5082822458202524 0.1460301654043832 0  0.5225521189003867 0.1415829177265247 0  0.2943629024281031 0.1968395422516448 0  0.5744613508889915 0.1248820689730982 0  0.3102362645260835 0.1956261107681038 0  0.3366823799781408 0.1923271412936014 0  0.4940048759039242 0.1504430457580143 0  0.3545351671714873 0.1880410300500133 0  0.4797170210565962 0.1548084530246982 0  0.3696955049149794 0.1848097608118881 0  0.3884066436983028 0.1803987572825176 0  0.4649555641292815 0.1588699347704653 0  0.4507694762386069 0.1635293359172163 0  0.4025209153360411 0.1769558469251171 0  0.4172627141952994 0.1729600427705591 0  0.4358191936935168 0.1678106968633975 0  0.31998857805304 0.1942690772516995 0  0.5511642965998784 0.132695064583717 0  0.4254825227143633 0.1705563054189439 0  0.3461874212264813 0.1898624711964435 0  0.3801275326476163 0.1825472155219106 0  0.2860226547106425 0.1983739383973064 0  0.5820902415378389 0.121106097162824 0  0.2680538675415216 0.2012380686512971 0  0.4585702289304778 0.1636031847002231 0  0.4871984413332644 0.1550012994148649 0  0.5014887767561499 0.1506101113404901 0  0.3950857695750226 0.1764134128749835 0  0.4728936709813248 0.1593379701609755 0  0.5157679880848289 0.1461783705906484 0  0.4442230961396009 0.1677793441407937 0  0.5300390772351758 0.1417180370299935 0  0.409486607343985 0.1726946810266134 0  0.3613436648704312 0.1843076002179538 0  0.302981521061145 0.1943041555000464 0  0.5667107479994921 0.1254294236032547 0  0.5426599435379469 0.1323459441870515 0  0.3283054588616817 0.1958413219174683 0  0.542722431198631 0.1394163415536513 0  0.3292285029916154 0.1888653044076501 0  0.5303023053197342 0.1351669349337181 0  0.5160422417216174 0.1396285448665834 0  0.5017787850144785 0.144062100431355 0  0.5706711677897615 0.1306542807586601 0  0.3015173635922867 0.2006458671240622 0  0.4732333072319101 0.1527954738680919 0  0.4875099965718911 0.1484557855052619 0  0.3944373091140773 0.1829127103499865 0  0.360463885570533 0.1907699580829631 0  0.4547200615200929 0.1583099776464393 0  0.4446441501547274 0.1612463297868072 0  0.4089180046719258 0.1792057130570079 0  0.2557350499121658 0.1960426503715943 0  0.2550533206102197 0.2034089396358545 0  0.4330667764676898 0.172538719431739 0  0.3726674448363071 0.1802339850364522 0  0.339399591424424 0.1869552388416965 0  0.2809732372473538 0.1947838137443085 0  0.2908387309517174 0.1939548341799165 0  0.4232715139022966 0.1754361340314518 0  0.3487419469205128 0.1851668424680519 0  0.3824932181817637 0.1777478372778379 0  0.3158606085656624 0.1909761421134787 0  0.5559159702008454 0.1352040161540838 0  0.5538606142026958 0.1277092523145381 0  0.3165593611668379 0.1986711485727903 0  0.2708582098395775 0.1953655576261739 0  0.5803787833701648 0.1284912127939505 0  0.4306903761338816 0.1645276617999355 0  0.4208094212754839 0.1676961636240445 0  0.3406095035424115 0.1956375829382785 0  0.2811898732505065 0.2035151771414189 0  0.2918008950619402 0.2025969878525428 0  0.3746461054472822 0.1883280283835297 0  0.3502600737194159 0.194180055020367 0  0.3843736662629654 0.1867088162049356 0  0.2646699016824581 0.1958926338994753 0  0.5869246641500181 0.1257086141252917 0  0.5245581414549103 0.1364589410492718 0  0.5102975165464735 0.1409104902269643 0  0.3073840816038971 0.2003997891208345 0  0.4960332059202374 0.1453295273264459 0  0.5652266906570287 0.1328684667629443 0  0.4817630132773639 0.149703316697048 0  0.4675252256362479 0.1540003486156191 0  0.3662996512567567 0.190019653
[...]
<PointData  Vectors="f_20-1"> 
<DataArray  type="Float64"  Name="f_20-1"  NumberOfComponents="3" format="ascii">-1.1872557531172875e-02 -7.9509628389419246e-02 0.0000000000000000e+00  -5.8144928932497165e-03 -8.0282260628315491e-02 0.0000000000000000e+00  0.0000000000000000e+00 0.0000000000000000e+00 0.0000000000000000e+00  0.0000000000000000e+00 0.0000000000000000e+00 0.0000000000000000e+00  -8.8434599378241652e-03 -7.9895928892533441e-02 0.0000000000000000e+00  0.0000000000000000e+00 0.0000000000000000e+00 0.0000000000000000e+00  0.0000000000000000e+00 0.0000000000000000e+00 0.0000000000000000e+00  0.0000000000000000e+00 0.0000000000000000e+00 0.0000000000000000e+00  0.0000000000000000e+00 0.0000000000000000e+00 0.0000000000000000e+00  1.1102372573416791e-04 -9.7302324769885380e-05 0.0000000000000000e+00  2.3228843136240796e-04 -2.0305225137929190e-04 0.0000000000000000e+00  3.5182357962808882e-04 -3.3752081546137660e-04 0.0000000000000000e+00  4.6324399236261196e-04 -5.6097650250771418e-04 0.0000000000000000e+00  5.6687083107092153e-04 -8.3233432922910405e-04 0.0000000000000000e+00  6.7219623755057601e-04 -1.1715800413157076e-03 0.0000000000000000e+00  7.6412005980637217e-04 -1.5456956867793499e-03 0.0000000000000000e+00  8.4237064165035584e-04 -1.9813922304066432e-03 0.0000000000000000e+00  9.1823874731729988e-04 -2.4654199302153331e-03 0.0000000000000000e+00  9.8381953479142201e-04 -2.9974653007456232e-03 0.0000000000000000e+00  1.0494244906655093e-03 -3.5939493673808384e-03 0.0000000000000000e+00  1.1130497800877052e-03 -4.2005349849813262e-03 0.0000000000000000e+00  1.1554291486685973e-03 -4.8786391055473891e-03 0.0000000000000000e+00  1.2085847507705126e-03 -5.5953879890937386e-03 0.0000000000000000e+00  1.2377415529249893e-03 -6.3464325400944483e-03 0.0000000000000000e+00  1.2643969696602584e-03 -7.1487814560759495e-03 0.0000000000000000e+00  1.2819729940703529e-03 -7.9802135973317517e-03 0.0000000000000000e+00  1.2892384021188912e-03 -8.8611371626863902e-03 0.0000000000000000e+00  1.2859099062530075e-03 -9.7620061127479257e-03 0.0000000000000000e+00  1.2755172291813246e-03 -1.0704860750573643e-02 0.0000000000000000e+00  1.2555823243485557e-03 -1.1676453079052454e-02 0.0000000000000000e+00  1.2255349179885848e-03 -1.2676279064068464e-02 0.0000000000000000e+00  1.1930385487012721e-03 -1.3722616064255908e-02 0.0000000000000000e+00  1.1591420409836676e-03 -1.4775507152921308e-02 0.0000000000000000e+00  1.1109160631186893e-03 -1.5869603529033636e-02 0.0000000000000000e+00  1.0546392286233345e-03 -1.6980471787002609e-02 0.0000000000000000e+00  9.9166460992665601e-04 -1.8121979482916439e-02 0.0000000000000000e+00  9.2114511884037879e-04 -1.9285347001885025e-02 0.0000000000000000e+00  8.4181484382618880e-04 -2.0469302335958756e-02 0.0000000000000000e+00  7.5941212791435543e-04 -2.1687230680752539e-02 0.0000000000000000e+00  6.7582807465734656e-04 -2.2908235552341085e-02 0.0000000000000000e+00  5.7757303736812276e-04 -2.4158446497566561e-02 0.0000000000000000e+00  4.7602576155525255e-04 -2.5431824307129033e-02 0.0000000000000000e+00  3.7273204668579143e-04 -2.6710424342181127e-02 0.0000000000000000e+00  2.5739735630641002e-04 -2.8014607016705544e-02 0.0000000000000000e+00  1.4365477351313284e-04 -2.9331570294391006e-02 0.0000000000000000e+00  1.9241005674972483e-05 -3.0663350186896917e-02 0.0000000000000000e+00  -1.0519469472691086e-04 -3.2012316443024276e-02 0.0000000000000000e+00  -2.3789483014785570e-04 -3.3370836829681963e-02 0.0000000000000000e+00  -3.7549821573869995e-04 -3.4744106875619976e-02 0.0000000000000000e+00  -5.1518584858443810e-04 -3.6127714446214564e-02 0.0000000000000000e+00  -6.5833805768440051e-04 -3.7523157214785233e-02 0.0000000000000000e+00  -8.0767593797584076e-04 -3.8928919976059691e-02 0.0000000000000000e+00  -9.5855330872259990e-04 -4.0343372026386964e-02 0.0000000000000000e+00  -1.1126654889821027e-03 -4.1767846394266818e-02 0.0000000000000000e+00  -1.2718827294145518e-03 -4.3200713471626462e-02 0.0000000000000000e+00  -1.4328909888444027e-03 -4.4640517454997690e-02 0.0000000000000000e+00  -1.5965873926994723e-03 -4.6088346094236878e-02 0.0000000000000000e+00  -1.7642453273371014e-03 -4.7542275624000124e-02 0.0000000000000000e+00  -1.9334319258412719e-03 -4.9001567662766116e-02 0.0000000000000000e+00  -2.1047753029443061e-03 -5.0466932886686050e-02 0.0000000000000000e+00  -2.2792460959162220e-03 -5.1936923808838457e-02 0.0000000000000000e+00  -2.4549753579476705e-03 -5.3410831797103001e-02 0.0000000000000000e+00  -2.6324643667902147e-03 -5.4889185593186687e-02 0.0000000000000000e+00  -2.8123539756629129e-03 -5.6370784730458687e-02 0.0000000000000000e+00  -2.9931043653919349e-03 -5.7855219367451756e-02 0.0000000000000000e+00  -3.1752607657262347e-03 -5.9342613752630093e-02 0.0000000000000000e+00  -3.3589703228015344e-03 -6.0832205772434304e-02 0.0000000000000000e+00  -3.5440012107143424e-03 -6.2323408691732883e-02 0.0000000000000000e+00  -3.7302948755764047e-03 -6.3816513821643758e-02 0.0000000000000000e+00  -3.9173234358035533e-03 -6.5311183851883392e-02 0.0000000000000000e+00  -4.1046803973636935e-03 -6.6806050749910195e-02 0.0000000000000000e+00  -4.2931727791513221e-03 -6.8302373218294091e-02 0.0000000000000000e+00  -4.4818884035179741e-03 -6.9799220404443418e-02 0.0000000000000000e+00  -4.6713305382468729e-03 -7.1296410105951558e-02 0.0000000000000000e+00  -4.8612870115705750e-03 -7.2794057501052223e-02 0.0000000000000000e+00  -5.0514593458310560e-03 -7.4291693542417117e-02 0.0000000000000000e+00  -5.2419992281382954e-03 -7.5789420072171543e-02 0.0000000000000000e+00  -5.4327428732390435e-03 -7.7287163935457009e-02 0.0000000000000000e+00  -5.6235612925397234e-03 -7.8784728224627815e-02 0.0000000000000000e+00  -1.1681564827692958e-02 -7.8012010970276435e-02 0.0000000000000000e+00  -1.1490561084306754e-02 -7.6514321913905725e-02 0.0000000000000000e+00  -1.1299488988958974e-02 -7.5016548522021470e-02 0.0000000000000000e+00  -1.1108304379055422e-02 -7.3518787107810221e-02 0.0000000000000000e+00  -1.0917011883695241e-02 -7.2021201703461379e-02 0.0000000000000000e+00  -1.0725546062494148e-02 -7.0523727805663336e-02 0.0000000000000000e+00  -1.0533879135684375e-02 -6.9026829256049804e-02 0.0000000000000000e+00  -1.0341784765233498e-02 -6.7530553547944461e-02 0.0000000000000000e+00  -1.0149707672113283e-02 -6.6034828344534932e-02 0.0000000000000000e+00  -9.9572838966531275e-03 -6.4540498955910658e-02 0.0000000000000000e+00  -9.7645715598251494e-03 -6.3046994298949333e-02 0.0000000000000000e+00  -9.5720209210832623e-03 -6.1555369824610032e-02 0.0000000000000000e+00  -9.3789893309644094e-03 -6.0066242190567075e-02 0.0000000000000000e+00  -9.1853726678099452e-03 -5.8577762450644402e-02 0.0000000000000000e+00  -8.9922685956718915e-03 -5.7092713269901167e-02 0.0000000000000000e+00  -8.7985476929211721e-03 -5.5611774673630980e-02 0.0000000000000000e+00  -8.6041761026242770e-03 -5.4131936514881421e-02 0.0000000000000000e+00  -8.4109999678120603e-03 -5.2657256405210386e-02 0.0000000000000000e+00  -8.2170830699698251e-03 -5.1188303915927456e-02 0.0000000000000000e+00  -8.0223838094523534e-03 -4.9720903664587618e-02 0.0000000000000000e+00  -7.8295908858518840e-03 -4.8260689061355624e-02 0.0000000000000000e+00  -7.6359906915549067e-03 -4.6808191197186662e-02 0.0000000000000000e+00  -7.4414833234964298e-03 -4.5357761047291965e-02 0.0000000000000000e+00  -7.2497479304392742e-03 -4.3916804989528012e-02 0.0000000000000000e+00  -7.0571117480871769e-03 -4.2486015519350807e-02 0.0000000000000000e+00  -6.8637509165885178e-03 -4.1058972107430515e-02 0.0000000000000000e+00  -6.6726256760046851e-03 -3.9642295526098326e-02 0.0000000000000000e+00  -6.4812824561690241e-03 -3.8239073882295672e-02 0.0000000000000000e+00  -6.2897498218873506e-03 -3.6838441909253970e-02 0.0000000000000000e+00  -6.1035408809834071e-03 -3.5452447837737135e-02 0.0000000000000000e+00  -5.9150609719515277e-03 -3.4083797247485635e-02 0.0000000000000000e+00  -5.7255152036399821e-03 -3.2719274776320188e-02 0.0000000000000000e+00  -5.5400591023687619e-03 -3.1373166209906211e-02 0.0000000000000000e+00  -5.3569522087065311e-03 -3.0036528383532442e-02 0.0000000000000000e+00  -5.1750364514186091e-03 -2.8715827028892322e-02 0.0000000000000000e+00  -4.9969320224985498e-03 -2.7414924862112989e-02 0.0000000000000000e+00  -4.8155857248601856e-03 -2.6125231360271190e-02 0.0000000000000000e+00  -4.6394234930155183e-03 -2.4855711497148634e-02 0.0000000000000000e+00  -4.4620730345130291e-03 -2.3603691120779917e-02 0.0000000000000000e+00  -4.2854129318452240e-03 -2.2372287214117742e-02 0.0000000000000000e+00  -4.1125589336536879e-03 -2.1162778794129224e-02 0.0000000000000000e+00  -3.9460771387128833e-03 -1.9969536033442023e-02 0.0000000000000000e+00  -3.7831870793727487e-03 -1.8801286733102961e-02 0.0000000000000000e+00  -3.6116006165870383e-03 -1.7652254441910244e-02 0.0000000000000000e+00  -3.4524998086816537e-03 -1.6530999123373961e-02 0.0000000000000000e+00  -3.2865934654393559e-03 -1.5439310609344128e-02 0.0000000000000000e+00  -3.1315239265176324e-03 -1.4368185149193474e-02 0.0000000000000000e+00  -2.9763728546669476e-03 -1.3331624963943111e-02 0.0000000000000000e+00  -2.8284587321837479e-03 -1.2315751970599455e-02 0.0000000000000000e+00  -2.6850185748656641e-03 -1.1333946310223494e-02 0.0000000000000000e+00  -2.5296147201895026e-03 -1.0377101497456681e-02 0.0000000000000000e+00  -2.3902112420439367e-03 -9.4557200301207591e-03 0.0000000000000000e+00  -2.2399642220151772e-03 -8.5740655801262722e-03 0.0000000000000000e+00  -2.1079522378577146e-03 -7.7219688536133528e-03 0.0000000000000000e+00  -1.9744594815498794e-03 -6.9217951385347250e-03 0.0000000000000000e+00  -1.8372753516475964e-03 -6.1336118129574320e-03 0.0000000000000000e+00  -1.7109036065364725e-03 -5.4018438998187559e-03 0.0000000000000000e+00  -1.5678916782085287e-03 -4.7084271957609641e-03 0.0000000000000000e+00  -1.4450468067437763e-03 -4.0531860014509126e-03 0.0000000000000000e+00  -1.3198639538073711e-03 -3.4546861927821763e-03 0.0000000000000000e+00  -1.2008882507526094e-03 -2.8879221952024837e-03 0.0000000000000000e+00  -1.0856192254025537e-03 -2.3764468899971801e-03 0.0000000000000000e+00  -9.5434374113887539e-04 -1.9028775951890459e-03 0.0000000000000000e+00  -8.4451539341448317e-04 -1.4811187202042025e-03 0.0000000000000000e+00  -7.1518916832341865e-04 -1.1106058848641442e-03 0.0000000000000000e+00  -6.0207326815922839e-04 -8.0216048310717124e-04 0.0000000000000000e+00  -4.7202994770750883e-04 -5.4655689600007775e-04 0.0000000000000000e+00  -3.5389228304509541e-04 -3.3113906327643649e-04 0.0000000000000000e+00  -2.3679360458958129e-04 -1.7996430859530313e-04 0.0000000000000000e+00  -1.1783653481689893e-04 -1.0199929184420734e-04 0.0000000000000000e+00  -1.0357956250550901e-02 -7.9702789212139802e-02 0.0000000000000000e+00  -7.3289862640466986e-03 -8.0089087900296257e-02 0.0000000000000000e+00  1.3332181045992741e-05 -1.0033370313533741e-04 0.0000000000000000e+00  -6.6523846167572329e-03 -6.2683161314816049e-02 0.0000000000000000e+00  -7.6262928963905076e-03 -7.0273052135000152e-02 0.0000000000000000e+00  2.7875838859152439e-05 -9.7945047535734353e-04 0.0000000000000000e+00  -5.5673375566443828e-03 -5.3872177244708656e-02 0.0000000000000000e+00  -6.1288815933512007e-03 -5.8319424922572194e-02 0.0000000000000000e+00  -1.4799277766165724e-04 -2.4516485888938211e-03 0.0000000000000000e+00  -8.3167322495011162e-03 -7.4660911127236648e-02 0.0000000000000000e+00  -1.7657513084213549e-04 -4.3443478127939625e-03 0.0000000000000000e+00  -3.1779556371430267e-04 -8.5023199497953738e-03 0.0000000000000000e+00  -5.0132903561218066e-03 -4.9459296891075921e-02 0.0000000000000000e+00  -7.4645039941704215e-04 -1.1958969950047540e-02 0.0000000000000000e+00  -4.4697280865963595e-03 -4.5093889624386707e-02 0.0000000000000000e+00  -1.0418664755757203e-03 -1.5204476883480781e-02 0.0000000000000000e+00  -1.4816138119468072e-03 -1.9601242717565186e-02 0.0000000000000000e+00  -4.0301909199920031e-03 -4.0671737655204133e-02 0.0000000000000000e+00  -3.3882554455898477e-03 -3.6470664082693491e-02 0.0000000000000000e+00  -1.8325760657919067e-03 -2.3141810425807343e-02 0.0000000000000000e+00  -2.2883775486574566e-03 -2.7039957229546649e-02 0.0000000000000000e+00  -2.8827841709344231e-03 -3.2175065441279731e-02 0.0000000000000000e+00  -2.5869697263027828e-04 -5.7398069629404427e-03 0.0000000000000000e+00  -7.2410575082065051e-03 -6.7296051201640672e-02 0.0000000000000000e+00  -2.5841919743501505e-03 -2.9292599401880254e-02 0.0000000000000000e+00  -5.7857340006604364e-04 -1.0288623982994002e-02 0.0000000000000000e+00  -1.2451019182745087e-03 -1.7603879657541437e-02 0.0000000000000000e+00  -4.5682981567220618e-05 -1.6676061733118736e-03 0.0000000000000000e+00  -9.0321396402805055e-03 -7.7138818772050380e-02 0.0000000000000000e+00  6.4551395658981787e-05 -4.3705699543196500e-04 0.0000000000000000e+00  -3.0032113121500081e-03 -3.8647178628577195e-02 0.0000000000000000e+00  -4.0378331430810273e-03 -4.7249063913944206e-02 0.0000000000000000e+00  -4.5789148370485025e-03 -5.1640251988321693e-02 0.0000000000000000e+00  -2.2181964936547911e-03 -2.1336223796212923e-02 0.0000000000000000e+00  -3.5111863781648561e-03 -4.2912393167829695e-02 0.0000000000000000e+00  -5.1311206252163122e-03 -5.6071992738170012e-02 0.0000000000000000e+00  -2.5189269861647951e-03 -3.4471019188006317e-02 0.0000000000000000e+00  -5.6914485917090385e-03 -6.0532326298826371e-02 0.0000000000000000e+00  -2.6487758415466422e-03 -2.5054955644584227e-02 0.0000000000000000e+00  -1.3536612589040377e-03 -1.3442036453238080e-02 0.0000000000000000e+00  -3.9013660075114996e-04 -3.4454811711404228e-03 0.0000000000000000e+00  -8.5702234723307909e-03 -7.2320213067895558e-02 0.0000000000000000e+00  -7.7999123811092648e-03 -6.4782534286715238e-02 0.0000000000000000e+00  1.1268564699761223e-04 -7.0301996087722739e-03 0.0000000000000000e+00  -5.6954708511150771e-03 -6.4423980015824944e-02 0.0000000000000000e+00  -1.0062240923833946e-03 -7.2943740228990526e-03 0.0000000000000000e+00  -7.6187799040772202e-03 -6.0958246730692847e-02 0.0000000000000000e+00  -7.0474263853479713e-03 -5.6496636797822374e-02 0.0000000000000000e+00  -6.4794659756438134e-03 -5.2063081233054795e-02 0.0000000000000000e+00  -6.8003630789481104e-03 -7.3220537576928590e-02 0.0000000000000000e+00  3.3626532733184851e-04 -3.2289512115314771e-03 0.0000000000000000e+00  -5.3621095245009950e-03 -4.3329707796312102e-02 0.0000000000000000e+00  -5.9168373013759783e-03 -4.7669396159144388e-02 0.0000000000000000e+00  -6.7609755768573024e-04 -2.0962107985610108e-02 0.0000000000000000e+00  -4.2881161878736224e-05 -1.3104860252631934e-02 0.0000000000000000e+00  -4.6628193256217296e-03 -3.7815204017960000e-02 0.0000000000000000e+00  -4.2884323679530274e-03 -3.4878851877593424e-02 0.0000000000000000e+00  -1.0268191166961493e-03 -2.4669105278591199e-02 0.0000000000000000e+00  -5.1250068031247037e-05 -4.3186654135156011e-05 0.0000000000000000e+00  3.8584579279812651e-05 -3.3703363256961219e-05 0.0000000000000000e+00  -1.7363711787789858e-03 -3.1235038332416344e-02 0.0000000000000000e+00  -1.9687567721028937e-03 -1.5992257199403111e-02 0.0000000000000000e+00  -1.2262451620063638e-03 -9.0915533522924370e-03 0.0000000000000000e+00  -3.2693087162955945e-04 -1.2629784497416782e-03 0.0000000000000000e+00  -4.2990779227199892e-04 -2.1267986850116282e-03 0.0000000000000000e+00  -1.3990196796926351e-03 -2.8517073774502646e-02 0.0000000000000000e+00  -1.4202288124001915e-03 -1.0879949726135898e-02 0.0000000000000000e+00  -2.2755974905057049e-03 -1.8298954916398043e-02 0.0000000000000000e+00  -7.7175997269363300e-04 -5.1833164498913467e-03 0.0000000000000000e+00  -6.2390309044955414e-03 -6.8577633105815272e-02 0.0000000000000000e+00  -8.5807734992811528e-03 -6.8366940046599642e-02 0.0000000000000000e+00  3.1985758352505520e-04 -5.1968071696788971e-03 0.0000000000000000e+00  -2.3050358118463987e-04 -6.0408670640987275e-04 0.0000000000000000e+00  -6.9226542701953690e-03 -7.6231575309131813e-02 0.0000000000000000e+00  -3.9775805103892843e-03 -3.0937484155315827e-02 0.0000000000000000e+00  -3.5202291323146537e-03 -2.8179534469861642e-02 0.0000000000000000e+00  3.5355245905915856e-04 -9.1564670908137434e-03 0.0000000000000000e+00  3.2138057441324490e-04 -1.2590646398467535e-03 0.0000000000000000e+00  3.9319174806801854e-04 -2.1839638545527468e-03 0.0000000000000000e+00  -1.2528716321101656e-04 -1.6206825661325672e-02 0.0000000000000000e+00  3.3842482952921478e-04 -1.0995286298263423e-02 0.0000000000000000e+00  -1.5462256626443122e-04 -1.8466525113700442e-02 0.0000000000000000e+00  -1.4458486304710113e-04 -3.1634039916206307e-04 0.0000000000000000e+00  -7.4001002162712021e-03 -7.8332928233626503e-02 0.0000000000000000e+00  -7.5391195907041179e-03 -5.9185568855815433e-02 0.0000000000000000e+00  -6.9683273822990534e-03 -5.4734019678121193e-02 0.0000000000000000e+00  3.9175604363126982e-04 -3.9470142664206316e-03 0.0000000000000000e+00  -6.4012208916890481e-03 -5.0314982578640449e-02 0.0000000000000000e+00  -6.4336129164064030e-03 -7.1478336624331840e-02 0.0000000000000000e+00  -5.8399964177101721e-03 -4.5941193208035191e-02 0.0000000000000000e+00  -5.2899718933785023e-03 -4.1639898275370284e-02 0.0000000000000000e+00  -3.0526395997090654e-05 -1.4347801770143718e-02 0.0000000000000000e+00  -5.0079342186343193e-03 -3.9443281207044829e-02 0.0000000000000000e+00  -6.9437538867993557e-04 -2.2409375478606549e-02 0.0000000000000000e+00  -4.2241978810803014e-03 -3.3249928952486796e-02 0.0000000000000000e+00  -1.0543757937228496e-03 -2.6184528510981759e-02 0.0000000000000000e+00  -9.6270654726990663e-03 -7.5641518045974201e-02 0.0000000000000000e+00  -5.7357030507815343e-03 -6.6183109583127037e-02 0.0000000000000000e+00  -9.9796035762764581e-04 -6.3607896337457065e-03 0.0000000000000000e+00  2.5374113678742940e-04 -6.6148113540493434e-04 0.0000000000000000e+00  1.3548765720523419e-04 -2.5399740224940360e-04 0.0000000000000000e+00  -2.1686871326828117e-03 -3.7375076524471675e-02 0.0000000000000000e+00  -3.3706583918379916e-03 -2.6189138856025987e-02 0.0000000000000000e+00  -2.6548610533312688e-03 -4.1616194100075790e-02 0.0000000000000000e+00  -4.2633105382741260e-03 -5.4723866430393835e-02 0.0000000000000000e+00  -3.1923092886350251e-03 -4.5926037828065772e-02 0.0000000000000000e+00  -3.7206520077095631e-03 -5.0302741216822454e-02 0.0000000000000000e+00  -2.7586268480603803e-03 -2.2521973064876605e-02 0.0000000000000000e+00  -1.7584036189186249e-03 -3.3253075132672630e-02 0.0000000000000000e+00  -1.9263095461944703e-03 -1.4396434240802582e-02 0.0000000000000000e+00  -2.6612800116256070e-03 -2.0122362639863257e-02 0.0000000000000000e+00  -5.1493490140963154e-03 -6.2066297478772715e-02 0.0000000000000000e+00  -1.7368095923814253e-03 -1.2417438693074753e-02 0.0000000000000000e+00  -5.0198399389638102e-03 -5.9094610933653244e-02 0.0000000000000000e+00  -7.2214875967726048e-04 -4.0086516316718340e-03 0.0000000000000000e+00  -6.0846119610929116e-04 -2.8863463154700396e-03 0.0000000000000000e+00  -9.4077562635628397e-03 -7.3565282216827510e-02 0.0000000000000000e+00  -9.1131374195368865e-03 -7.0779941105880984e-02 0.0000000000000000e+00  -4.3791741855682209e-03 -5.3232990474644908e-02 0.0000000000000000e+00  -3.8376948594699774e-03 -4.8825344272344751e-02 0.0000000000000000e+00  -2.7220842220386900e-03 -4.0131745838517835e-02 0.0000000000000000e+00  -4.8552600269017882e-03 -5.7640770235205502e-02 0.0000000000000000e+00  -3.3107643243548333e-03 -4.4466895616884813e-02 0.0000000000000000e+00  -2.2159303486200040e-03 -3.5927571333870284e-02 0.0000000000000000e+00  -2.8895811417440419e-03 -2.3731628762737798e-02 0.0000000000000000e+00  4.2546593358865211e-04 -6.3018736217436266e-03 0.0000000000000000e+00  -8.5341978133778949e-03 -6.6136045216500475e-02 0.0000000000000000e+00  -8.1273711546554477e-03 -6.3302539758618492e-02 0.0000000000000000e+00  3.658982