<?xml version="1.0"?>
<VTKFile type="UnstructuredGrid"  version="0.1"  >
<UnstructuredGrid>
<Piece  NumberOfPoints="439" NumberOfCells="725">
<Points>
<DataArray  type="Float64"  NumberOfComponents="3"  format="ascii">0.597113187003998 0.1539536943360009 0  0.5998939052680682 0.173814607938964 0  0.2489897949 0.21 0  0.2489897949 0.19 0  0.5985035812966563 0.1638841673342947 0  0.2496355385699469 0.2060260530378829 0  0.249959460510575 0.2020130349814059 0  0.2499594605105767 0.1979869650186357 0  0.24963553856995 0.1939739469621422 0  0.2539840131194461 0.2099561463617887 0  0.2589827196506916 0.2099093888328475 0  0.2639807977717609 0.209850235868163 0  0.2689759125269204 0.2097519005620673 0  0.2739680699502531 0.2096327565190437 0  0.2789619479534456 0.2094839377410109 0  0.2839504493071479 0.2093200217617956 0  0.288934086227279 0.2091289624121031 0  0.2939177855970935 0.208916930859737 0  0.2988981465106043 0.2086838338785377 0  0.3038803576176624 0.2084227476016775 0  0.3088619911066781 0.2081574224725215 0  0.3138365759952964 0.2078603017080418 0  0.3188173068323228 0.2075468146857127 0  0.3237886944223997 0.2072176537444047 0  0.3287610254702749 0.2068660449720137 0  0.333730578046407 0.2065014672352895 0  0.3386977157812831 0.2061148113440688 0  0.3436610932670852 0.2057190591551648 0  0.3486233110057764 0.2053045176763797 0  0.3535826911390986 0.2048769434451108 0  0.3585390051384397 0.2044364207796327 0  0.3634966192968418 0.2039751054409221 0  0.3684540066235156 0.2035108281690138 0  0.3734071774226915 0.2030274357118066 0  0.3783576724134598 0.2025360981742592 0  0.3833068762146864 0.2020305833929055 0  0.3882539239274959 0.2015147892840406 0  0.3931981717246873 0.2009891166700455 0  0.3981430130815846 0.2004476954118703 0  0.4030875602914182 0.1999047771877478 0  0.4080270955730649 0.1993475206568643 0  0.4129665204033202 0.1987792324498794 0  0.417905499233566 0.1982083697743776 0  0.42284042378244 0.1976247476250541 0  0.4277769352185525 0.197035133879556 0  0.4327093329425038 0.1964377551520462 0  0.4376428592838311 0.1958320987988925 0  0.4425730264786208 0.1952212645501822 0  0.4475017679872172 0.1946029021753021 0  0.4524301948661769 0.1939792933427848 0  0.4573577369242937 0.1933495820215456 0  0.4622828870001138 0.1927143035258 0  0.4672078684663675 0.1920745022862934 0  0.4721319240309785 0.1914293912715578 0  0.4770539453504542 0.1907796347626621 0  0.4819755417845076 0.1901261404850848 0  0.486896326962345 0.1894682815408889 0  0.4918154647614213 0.188806931584999 0  0.4967341877296935 0.1881426030426424 0  0.5016522145008772 0.1874748752369329 0  0.5065688927528047 0.1868044191886809 0  0.5114851828388792 0.1861317160380871 0  0.5164008503077047 0.185456444598056 0  0.5213154326535161 0.1847791891826347 0  0.5262297528799559 0.1841002656177054 0  0.5311435160213059 0.1834195642317967 0  0.5360565749259857 0.1827374848177406 0  0.5409690059144109 0.1820543756627512 0  0.5458808553595018 0.181370057609257 0  0.5507923995670692 0.1806847523725926 0  0.5557037730271081 0.1799992970516178 0  0.5606145933256476 0.1793128838522525 0  0.5655253249710612 0.1786261250057211 0  0.570435648470793 0.1779390953712894 0  0.5753457024037854 0.1772517360958654 0  0.5802556253671158 0.1765643629684981 0  0.5851653324441214 0.1758768952298829 0  0.5900749192512886 0.1751893949475532 0  0.5949844472237237 0.1745019969032967 0  0.5922037574075074 0.1546411312311934 0  0.5872943360659528 0.1553286094069685 0  0.5823849529961519 0.1560161433117009 0  0.5774756448480228 0.1567036683802437 0  0.5725664189123082 0.1573910850743533 0  0.5676573065990621 0.1580784375187516 0  0.5627483543339945 0.158765443738878 0  0.55783970164684 0.1594520948009837 0  0.5529310692833135 0.1601384009834796 0  0.5480227311528481 0.1608238926710276 0  0.5431146075598788 0.1615089071724557 0  0.5382065035975562 0.1621927963335384 0  0.5332988287653055 0.16287526350214 0  0.5283915166636501 0.1635573919734472 0  0.5234841140055214 0.1642375086820869 0  0.5185773016545074 0.1649153448938385 0  0.5136709004697873 0.1655926033509521 0  0.5087641331933022 0.1662668949794341 0  0.503858100854391 0.1669380900884639 0  0.4989525596295324 0.1676084859697314 0  0.4940463941162736 0.1682748475340475 0  0.4891410940176893 0.1689371398827537 0  0.4842363603033178 0.1695983897459229 0  0.4793306934993262 0.1702544458430003 0  0.4744260571909616 0.1709052795627581 0  0.4695219739232365 0.1715542362720992 0  0.4646173005903449 0.1721976749923519 0  0.459713477869307 0.172834334815975 0  0.4548098299066425 0.1734696668100038 0  0.4499043249595862 0.1740973323956331 0  0.4450008879305505 0.174716547660075 0  0.4400981458986259 0.1753338209607901 0  0.4351943939665869 0.1759417910997886 0  0.4302899836199018 0.1765450506299959 0  0.425385832676937 0.1771405274949439 0  0.420480929608667 0.1777263558049216 0  0.4155781017849672 0.1783070102520305 0  0.4106739278344696 0.178877828428759 0  0.4057711912725556 0.1794405161493505 0  0.4008691628471771 0.1799935345943138 0  0.3959664825387528 0.1805362088303065 0  0.3910616839421644 0.1810709861693512 0  0.3861565282533737 0.1815940873990621 0  0.3812562263311294 0.1821088305129598 0  0.3763516506595044 0.1826103196151437 0  0.3714515449991099 0.1830987517405804 0  0.3665475564297299 0.1835773328444845 0  0.3616452536978248 0.1840404091533711 0  0.3567406571216324 0.1844938017638312 0  0.3518356393824646 0.1849317552425954 0  0.3469369390859396 0.1853590824557687 0  0.342032737169722 0.1857699489077417 0  0.337134924154181 0.1861636579347268 0  0.3322303378094019 0.1865434835558974 0  0.3273284378095751 0.1869004495584464 0  0.3224285667827191 0.1872521773199482 0  0.3175260726933521 0.1875786208577417 0  0.3126320709159741 0.1878886924107666 0  0.3077305946541382 0.1881812306825062 0  0.3028319183746531 0.1884488396714075 0  0.2979314716267114 0.1887021514203505 0  0.2930309221097706 0.1889309894935896 0  0.2881382468130482 0.1891433777761362 0  0.2832375070452091 0.189332336978391 0  0.2783463078195337 0.189498940469693 0  0.2734492124693748 0.1896377052322327 0  0.2685604083845962 0.1897531328920904 0  0.2636669747249472 0.18985031254648 0  0.2587737637236018 0.1899187051339195 0  0.2538819163787097 0.1899543596986786 0  0.597808415395401 0.1589189290302974 0  0.5991987350820039 0.1688493916667685 0  0.2589805167524959 0.2005069276890379 0  0.5420427594730234 0.1717829551381692 0  0.5669595784367847 0.1682713782125827 0  0.2774724576805235 0.2003574615596523 0  0.5129309644028995 0.1757182094075912 0  0.5276627113195577 0.1736836202333997 0  0.2944722688140617 0.1982006480578523 0  0.5813377603072286 0.1658252485457872 0  0.3103918711144499 0.1980435929515058 0  0.3370016583641495 0.1970669934802142 0  0.4981973300513877 0.1777331487738653 0  0.355177599705065 0.1947037951684453 0  0.4834610982787803 0.179721695922348 0  0.3705886494246952 0.1932778075597368 0  0.3896704041536873 0.1913065653198734 0  0.4683073857192383 0.1813663473530143 0  0.4536262995013159 0.1837315242713286 0  0.4040864118349474 0.1898240151569545 0  0.4192030724276959 0.1879794831355029 0  0.438254563212835 0.185656205941548 0  0.3202160663002236 0.1974651542460117 0  0.5571959448887779 0.1696583839644192 0  0.427658988342671 0.1868154568484796 0  0.3466944297407438 0.1955954420246797 0  0.3812013932168599 0.1923484340301477 0  0.2860647553635475 0.199299148069469 0  0.5894436583861232 0.1633757461708799 0  0.2680217119124085 0.2014796776025448 0  0.4612878518674066 0.1850185968594927 0  0.4907794868192026 0.1811124732167162 0  0.5055186959275803 0.1791102205603177 0  0.3968110996217532 0.1882656318778967 0  0.4760361985444844 0.1830846835744072 0  0.520254573266495 0.1770849679670969 0  0.4465331967213115 0.1869059292658894 0  0.5349878801964727 0.1750430094971971 0  0.411564763548428 0.1866010111023283 0  0.3623636653769898 0.1917834533812577 0  0.3032413533557403 0.1962163829662718 0  0.5736434847213686 0.1650870314848841 0  0.5489087666900561 0.1679180336189825 0  0.3283518540558642 0.1997664644211761 0  0.5478097799671114 0.1748661560372444 0  0.3299062108503037 0.192915391678957 0  0.5363189570847448 0.1686573756098486 0  0.5215917931487971 0.1707008454032517 0  0.5068644716340499 0.1727281924503736 0  0.5766699153321455 0.1708649080471699 0  0.3013681781078201 0.2024478194370518 0  0.4774078807712343 0.1767088887345086 0  0.4921366646849268 0.1747332423897326 0  0.395293265836808 0.1946020451823212 0  0.3607431236080967 0.1980909527507005 0  0.4583246430346973 0.1792113238191711 0  0.4479452847220047 0.1805400949133476 0  0.410083323070929 0.1929474276467891 0  0.2557642236227632 0.1960660941741438 0  0.2550324991939644 0.2034271448506959 0  0.4348369423821614 0.1899008144653395 0  0.3740995944821267 0.1891163764626105 0  0.3402403864383243 0.1920043237188658 0  0.2811672529607875 0.1954810786909077 0  0.2911010116500143 0.1951315314542515 0  0.4247661529465349 0.1913027100258886 0  0.3497338860451421 0.1912103914686578 0  0.3841614909432435 0.1879073992641921 0  0.3163643427476299 0.1938519691834022 0  0.5614456980311868 0.172901576599387 0  0.560660800931068 0.1652099675185696 0  0.3164532438104479 0.2015738800697918 0  0.2709917537945466 0.1956980569037667 0  0.5865497634855631 0.1703398701360353 0  0.4336914434559695 0.1816528289614235 0  0.4234691388771644 0.1833086651294416 0  0.3405688060665315 0.2007583789713761 0  0.2810227187630695 0.2042163109400417 0  0.2916048928607436 0.2038153960833009 0  0.375055954983215 0.197380387590849 0  0.3502723001811538 0.2003299881551085 0  0.3848649402790478 0.1970217206754548 0  0.264753102166679 0.1960664876521435 0  0.5934296809316392 0.168686712753689 0  0.5304696419386191 0.1689837738511395 0  0.5157428002622478 0.1710214625157626 0  0.3072156070388982 0.2026042005282424 0  0.5010159096231499 0.1730407011413768 0  0.5709642922723309 0.1721416142131401 0  0.4862885589431619 0.1750349333325796 0  0.471603097303385 0.1769868902286078 0  0.3666051907779472 0.1980357160806324 0 
[...]
<PointData  Vectors="f_20-1"> 
<DataArray  type="Float64"  Name="f_20-1"  NumberOfComponents="3" format="ascii">-2.8868129960020615e-03 -3.6046305663999044e-02 0.0000000000000000e+00  -1.0609473193163254e-04 -3.6185392061035992e-02 0.0000000000000000e+00  0.0000000000000000e+00 0.0000000000000000e+00 0.0000000000000000e+00  0.0000000000000000e+00 0.0000000000000000e+00 0.0000000000000000e+00  -1.4964187033436665e-03 -3.6115832665705359e-02 0.0000000000000000e+00  0.0000000000000000e+00 0.0000000000000000e+00 0.0000000000000000e+00  0.0000000000000000e+00 0.0000000000000000e+00 0.0000000000000000e+00  0.0000000000000000e+00 0.0000000000000000e+00 0.0000000000000000e+00  0.0000000000000000e+00 0.0000000000000000e+00 0.0000000000000000e+00  5.0412513816821140e-05 -4.3853638211241723e-05 0.0000000000000000e+00  1.0531333943735972e-04 -9.0611167152544603e-05 0.0000000000000000e+00  1.5958575486880411e-04 -1.4976413183695806e-04 0.0000000000000000e+00  2.1089480439043666e-04 -2.4809943793270567e-04 0.0000000000000000e+00  2.5924652209626203e-04 -3.6724348095624868e-04 0.0000000000000000e+00  3.0931881967034109e-04 -5.1606225898905348e-04 0.0000000000000000e+00  3.5401446775418531e-04 -6.7997823820440490e-04 0.0000000000000000e+00  3.9384568226236914e-04 -8.7103758789693249e-04 0.0000000000000000e+00  4.3373934644131822e-04 -1.0830691402630545e-03 0.0000000000000000e+00  4.7029455433353058e-04 -1.3161661214623284e-03 0.0000000000000000e+00  5.0869995576259986e-04 -1.5772523983225118e-03 0.0000000000000000e+00  5.4652773916002843e-04 -1.8425775274784847e-03 0.0000000000000000e+00  5.7730692215986169e-04 -2.1396982919581389e-03 0.0000000000000000e+00  6.1423205356792997e-04 -2.4531853142872552e-03 0.0000000000000000e+00  6.4181393802654650e-04 -2.7823462555952279e-03 0.0000000000000000e+00  6.7033928028320576e-04 -3.1339550279862833e-03 0.0000000000000000e+00  6.9608615078631047e-04 -3.4985327647105192e-03 0.0000000000000000e+00  7.1941818005471819e-04 -3.8851886559311613e-03 0.0000000000000000e+00  7.3898996022765413e-04 -4.2809408448351615e-03 0.0000000000000000e+00  7.5740199330045057e-04 -4.6954823236202382e-03 0.0000000000000000e+00  7.7297642100410872e-04 -5.1230565548892638e-03 0.0000000000000000e+00  7.8548471472690941e-04 -5.5635792203673423e-03 0.0000000000000000e+00  7.9929316751071523e-04 -6.0248945590779110e-03 0.0000000000000000e+00  8.1287478856608916e-04 -6.4891718309862114e-03 0.0000000000000000e+00  8.2223988211271653e-04 -6.9725642881933430e-03 0.0000000000000000e+00  8.2892916727210703e-04 -7.4639018257408188e-03 0.0000000000000000e+00  8.3432726287438952e-04 -7.9694166070944719e-03 0.0000000000000000e+00  8.3756927006209576e-04 -8.4852107159593751e-03 0.0000000000000000e+00  8.3801136162420947e-04 -9.0108833299544656e-03 0.0000000000000000e+00  8.3904701291397576e-04 -9.5523045881297057e-03 0.0000000000000000e+00  8.3978851711965174e-04 -1.0095222812252204e-02 0.0000000000000000e+00  8.3551809315408985e-04 -1.0652479343135684e-02 0.0000000000000000e+00  8.3113721778915587e-04 -1.1220767550120560e-02 0.0000000000000000e+00  8.2631034241419652e-04 -1.1791630225622393e-02 0.0000000000000000e+00  8.1742918567639120e-04 -1.2375252374945933e-02 0.0000000000000000e+00  8.1013491616075176e-04 -1.2964866120444046e-02 0.0000000000000000e+00  7.9872693447854623e-04 -1.3562244847953811e-02 0.0000000000000000e+00  7.8844757015381463e-04 -1.4167901201107469e-02 0.0000000000000000e+00  7.7480905928785241e-04 -1.4778735449817795e-02 0.0000000000000000e+00  7.5974486222055073e-04 -1.5397097824697926e-02 0.0000000000000000e+00  7.4436603553241088e-04 -1.6020706657215233e-02 0.0000000000000000e+00  7.2810238800729817e-04 -1.6650417978454405e-02 0.0000000000000000e+00  7.0944675819777569e-04 -1.7285696474199971e-02 0.0000000000000000e+00  6.9062251880103078e-04 -1.7925497713706537e-02 0.0000000000000000e+00  6.7087237777880193e-04 -1.8570608728442135e-02 0.0000000000000000e+00  6.4908799158742536e-04 -1.9220365237337868e-02 0.0000000000000000e+00  6.2687871999419196e-04 -1.9873859514915208e-02 0.0000000000000000e+00  6.0385819216894187e-04 -2.0531718459111104e-02 0.0000000000000000e+00  5.7919028561464439e-04 -2.1193068415000967e-02 0.0000000000000000e+00  5.5410754823248044e-04 -2.1857396957357569e-02 0.0000000000000000e+00  5.2832861378734788e-04 -2.2525124763067114e-02 0.0000000000000000e+00  5.0120116005538090e-04 -2.3195580811319134e-02 0.0000000000000000e+00  4.7368554049195621e-04 -2.3868283961912869e-02 0.0000000000000000e+00  4.4554730370109061e-04 -2.4543555401943966e-02 0.0000000000000000e+00  4.1632394387467727e-04 -2.5220810817365321e-02 0.0000000000000000e+00  3.8683846465575601e-04 -2.5899734382294610e-02 0.0000000000000000e+00  3.5679590036684692e-04 -2.6580435768203320e-02 0.0000000000000000e+00  3.2604909938702045e-04 -2.7262515182259407e-02 0.0000000000000000e+00  2.9467438217416659e-04 -2.7945624337248804e-02 0.0000000000000000e+00  2.6271812164914020e-04 -2.8629942390743013e-02 0.0000000000000000e+00  2.3045662357830556e-04 -2.9315247627407344e-02 0.0000000000000000e+00  1.9802437796244654e-04 -3.0000702948382175e-02 0.0000000000000000e+00  1.6503897085926191e-04 -3.0687116147747551e-02 0.0000000000000000e+00  1.3196491061322790e-04 -3.1373874994278947e-02 0.0000000000000000e+00  9.8482704681261460e-05 -3.2060904628710536e-02 0.0000000000000000e+00  6.4730932039356080e-05 -3.2748263904134579e-02 0.0000000000000000e+00  3.0848189732378090e-05 -3.3435637031501847e-02 0.0000000000000000e+00  -3.2504389125896645e-06 -3.4123104770117103e-02 0.0000000000000000e+00  -3.7469337392342542e-05 -3.4810605052446777e-02 0.0000000000000000e+00  -7.1747070616888804e-05 -3.5498003096703278e-02 0.0000000000000000e+00  -2.8524368868759194e-03 -3.5358868768806569e-02 0.0000000000000000e+00  -2.8180525228053070e-03 -3.4671390593031488e-02 0.0000000000000000e+00  -2.7836298869674176e-03 -3.3983856688299056e-02 0.0000000000000000e+00  -2.7491323294498368e-03 -3.3296331619756259e-02 0.0000000000000000e+00  -2.7145525595431699e-03 -3.2608914925646722e-02 0.0000000000000000e+00  -2.6798591671686428e-03 -3.1921562481248451e-02 0.0000000000000000e+00  -2.6450057266235571e-03 -3.1234556261122041e-02 0.0000000000000000e+00  -2.6098527081489901e-03 -3.0547905199016290e-02 0.0000000000000000e+00  -2.5746793660445157e-03 -2.9861599016520350e-02 0.0000000000000000e+00  -2.5392117908553799e-03 -2.9176107328972353e-02 0.0000000000000000e+00  -2.5035296782254736e-03 -2.8491092827544275e-02 0.0000000000000000e+00  -2.4678279349486217e-03 -2.7807203666461562e-02 0.0000000000000000e+00  -2.4316970615905083e-03 -2.7124736497860021e-02 0.0000000000000000e+00  -2.3952034576129556e-03 -2.6442608026552808e-02 0.0000000000000000e+00  -2.3588004101413713e-03 -2.5762491317913111e-02 0.0000000000000000e+00  -2.3218070555168172e-03 -2.5084655106161566e-02 0.0000000000000000e+00  -2.2844025346346734e-03 -2.4407396649047928e-02 0.0000000000000000e+00  -2.2473641055204586e-03 -2.3733105020565852e-02 0.0000000000000000e+00  -2.2095907388267715e-03 -2.3061909911536092e-02 0.0000000000000000e+00  -2.1713262580482259e-03 -2.2391514030268577e-02 0.0000000000000000e+00  -2.1336860656984077e-03 -2.1725152465952476e-02 0.0000000000000000e+00  -2.0951804586637332e-03 -2.1062860117246233e-02 0.0000000000000000e+00  -2.0561084674164017e-03 -2.0401610254077170e-02 0.0000000000000000e+00  -2.0179695657784632e-03 -1.9745554156999637e-02 0.0000000000000000e+00  -1.9788001685350927e-03 -1.9094720437241947e-02 0.0000000000000000e+00  -1.9390777306318462e-03 -1.8445763727900806e-02 0.0000000000000000e+00  -1.8999453579106635e-03 -1.7802325007648011e-02 0.0000000000000000e+00  -1.8599623733278996e-03 -1.7165665184025066e-02 0.0000000000000000e+00  -1.8198046303678380e-03 -1.6530333189996253e-02 0.0000000000000000e+00  -1.7815038717946116e-03 -1.5902667604366882e-02 0.0000000000000000e+00  -1.7411351952211359e-03 -1.5283452339925037e-02 0.0000000000000000e+00  -1.7000715215206381e-03 -1.4666179039209927e-02 0.0000000000000000e+00  -1.6600177479427802e-03 -1.4058208900211380e-02 0.0000000000000000e+00  -1.6206223890112800e-03 -1.3454949370004117e-02 0.0000000000000000e+00  -1.5809676263495586e-03 -1.2859472505056124e-02 0.0000000000000000e+00  -1.5420649889811102e-03 -1.2273644195078372e-02 0.0000000000000000e+00  -1.5010871070383670e-03 -1.1692989747969484e-02 0.0000000000000000e+00  -1.4614553518898028e-03 -1.1122171571241036e-02 0.0000000000000000e+00  -1.4203862081439045e-03 -1.0559483850649492e-02 0.0000000000000000e+00  -1.3786089278708257e-03 -1.0006465405686246e-02 0.0000000000000000e+00  -1.3374835306372904e-03 -9.4637911696934893e-03 0.0000000000000000e+00  -1.2984764215904073e-03 -8.9290138306487507e-03 0.0000000000000000e+00  -1.2598264047345342e-03 -8.4059126009378999e-03 0.0000000000000000e+00  -1.2163226213530176e-03 -7.8911694870402015e-03 0.0000000000000000e+00  -1.1770925873214417e-03 -7.3896803848563855e-03 0.0000000000000000e+00  -1.1333925420672828e-03 -6.9012482594195844e-03 0.0000000000000000e+00  -1.0935754057786518e-03 -6.4226671555154911e-03 0.0000000000000000e+00  -1.0520724320365285e-03 -5.9595908466289456e-03 0.0000000000000000e+00  -1.0128633025784377e-03 -5.5061982361687993e-03 0.0000000000000000e+00  -9.7407533612439885e-04 -5.0682447574045787e-03 0.0000000000000000e+00  -9.2896992699141926e-04 -4.6409175442313714e-03 0.0000000000000000e+00  -8.8936613757003994e-04 -4.2300510922583402e-03 0.0000000000000000e+00  -8.4337344747251544e-04 -3.8363420652731722e-03 0.0000000000000000e+00  -8.0415408661330308e-04 -3.4565164441025926e-03 0.0000000000000000e+00  -7.6224838080002919e-04 -3.0995504415536859e-03 0.0000000000000000e+00  -7.1831370199806400e-04 -2.7478226800517402e-03 0.0000000000000000e+00  -6.7700208570710787e-04 -2.4213791422582902e-03 0.0000000000000000e+00  -6.2719815742710708e-04 -2.1113075892334270e-03 0.0000000000000000e+00  -5.8486871361998830e-04 -1.8187693174937971e-03 0.0000000000000000e+00  -5.3973928746660848e-04 -1.5511603285925160e-03 0.0000000000000000e+00  -4.9638032976992202e-04 -1.2978485796494451e-03 0.0000000000000000e+00  -4.5312414107227372e-04 -1.0690105064103536e-03 0.0000000000000000e+00  -4.0199373213925348e-04 -8.5662222386378702e-04 0.0000000000000000e+00  -3.5892779432043022e-04 -6.6766302160901501e-04 0.0000000000000000e+00  -3.0632131433792339e-04 -5.0105953030694808e-04 0.0000000000000000e+00  -2.5961095884957538e-04 -3.6229476776728528e-04 0.0000000000000000e+00  -2.0460933798983205e-04 -2.4686710790957007e-04 0.0000000000000000e+00  -1.5423729200042354e-04 -1.4968745351993877e-04 0.0000000000000000e+00  -1.0364258770751825e-04 -8.1294866080534273e-05 0.0000000000000000e+00  -5.1684226948184070e-05 -4.5640301321365974e-05 0.0000000000000000e+00  -2.1915846045989788e-03 -3.6081070969680808e-02 0.0000000000000000e+00  -8.0126491799584784e-04 -3.6150608333204368e-02 0.0000000000000000e+00  7.0902208466463276e-06 -4.5461653802395690e-05 0.0000000000000000e+00  -1.1034749122842860e-03 -2.8217044861799812e-02 0.0000000000000000e+00  -1.2802110400314674e-03 -3.1699080368316035e-02 0.0000000000000000e+00  2.1064968721121027e-05 -4.3673038254026750e-04 0.0000000000000000e+00  -9.1861897399726712e-04 -2.4184133241500698e-02 0.0000000000000000e+00  -1.0182891741803448e-03 -2.6218722415697213e-02 0.0000000000000000e+00  -3.8626391703040377e-05 -1.0905427826863067e-03 0.0000000000000000e+00  -1.4403228312640131e-03 -3.3717731554547679e-02 0.0000000000000000e+00  -2.0968542475764504e-05 -1.9268656293919772e-03 0.0000000000000000e+00  1.4828222944255373e-06 -3.7624677631825179e-03 0.0000000000000000e+00  -8.2083620865819904e-04 -2.2169193875224927e-02 0.0000000000000000e+00  -1.0401786583927300e-04 -5.2962048316154888e-03 0.0000000000000000e+00  -7.2565086441230692e-04 -2.0180646726736876e-02 0.0000000000000000e+00  -1.4872196585990105e-04 -6.7364301356321373e-03 0.0000000000000000e+00  -2.1785335656236178e-04 -8.6934346802093956e-03 0.0000000000000000e+00  -6.7836933003516181e-04 -1.8175325072655103e-02 0.0000000000000000e+00  -5.3143218288074080e-04 -1.6268475728581221e-02 0.0000000000000000e+00  -2.6707956688560452e-04 -1.0273642193969956e-02 0.0000000000000000e+00  -3.4801931626093788e-04 -1.2020516864602837e-02 0.0000000000000000e+00  -4.4741465161625313e-04 -1.4329556363129227e-02 0.0000000000000000e+00  -3.1208725446694622e-05 -2.5437299686281861e-03 0.0000000000000000e+00  -1.2094092193070563e-03 -3.0332731820938520e-02 0.0000000000000000e+00  -4.0772634604240352e-04 -1.3033447972344464e-02 0.0000000000000000e+00  -7.1564885803568226e-05 -4.5556531547577533e-03 0.0000000000000000e+00  -1.7124134903085617e-04 -7.8026611493043699e-03 0.0000000000000000e+00  -3.5823286622076073e-06 -7.4239650114927343e-04 0.0000000000000000e+00  -1.6787227919961764e-03 -3.4869169763994456e-02 0.0000000000000000e+00  3.2395766545937339e-05 -1.9544804418420049e-04 0.0000000000000000e+00  -2.8558837522118163e-04 -1.7231766469307627e-02 0.0000000000000000e+00  -4.5678765714278735e-04 -2.1137890112092949e-02 0.0000000000000000e+00  -5.4899566561817498e-04 -2.3140142768494167e-02 0.0000000000000000e+00  -4.9286644692421271e-04 -9.4840047932997929e-03 0.0000000000000000e+00  -3.6865881500532994e-04 -1.9165679754397966e-02 0.0000000000000000e+00  -6.4453544355031595e-04 -2.5165395361721500e-02 0.0000000000000000e+00  -2.0882640445422926e-04 -1.5344434062910615e-02 0.0000000000000000e+00  -7.4264563041214285e-04 -2.7207353831622764e-02 0.0000000000000000e+00  -5.7061963710370775e-04 -1.1148625568869279e-02 0.0000000000000000e+00  -3.3366075234542663e-04 -5.9661832899342944e-03 0.0000000000000000e+00  -1.3030430615584000e-04 -1.5332537049150411e-03 0.0000000000000000e+00  -1.6374867504542481e-03 -3.2662605186266160e-02 0.0000000000000000e+00  -1.5510892290000792e-03 -2.9210444854784221e-02 0.0000000000000000e+00  1.5908084118013767e-04 -3.1050571050644793e-03 0.0000000000000000e+00  -6.0812208263462972e-04 -2.8974165532231897e-02 0.0000000000000000e+00  -3.2851623369503245e-04 -3.2442867515921170e-03 0.0000000000000000e+00  -1.6021281390665837e-03 -2.7467806054562362e-02 0.0000000000000000e+00  -1.4978749581682389e-03 -2.5424336261154010e-02 0.0000000000000000e+00  -1.3937793560724044e-03 -2.3396989214036171e-02 0.0000000000000000e+00  -8.0161553656398160e-04 -3.3009910288418848e-02 0.0000000000000000e+00  1.8707984286531960e-04 -1.4269988985419286e-03 0.0000000000000000e+00  -1.1875359851767999e-03 -1.9416292929895378e-02 0.0000000000000000e+00  -1.2901691883402506e-03 -2.1391939274673661e-02 0.0000000000000000e+00  1.7985916504501380e-04 -9.2727731532754407e-03 0.0000000000000000e+00  2.3635687568496094e-04 -5.7838655848945625e-03 0.0000000000000000e+00  -1.0582378110172417e-03 -1.6913857845228222e-02 0.0000000000000000e+00  -9.8729780067572086e-04 -1.5585086751053060e-02 0.0000000000000000e+00  1.3849928230704825e-04 -1.0927390688809931e-02 0.0000000000000000e+00  -2.2076357433827683e-05 -1.9742851585636584e-05 0.0000000000000000e+00  1.7763163024549669e-05 -1.5498148415492779e-05 0.0000000000000000e+00  3.3794735692515624e-05 -1.3872943298815896e-02 0.0000000000000000e+00  -5.3660712628330785e-04 -7.1098657732447607e-03 0.0000000000000000e+00  -3.8545014810604090e-04 -4.0424684751231791e-03 0.0000000000000000e+00  -1.3291515819576280e-04 -5.6571350314249980e-04 0.0000000000000000e+00  -1.6762709397496838e-04 -9.5010141067660510e-04 0.0000000000000000e+00  9.5619364545667464e-05 -1.2650497780065788e-02 0.0000000000000000e+00  -4.2828968777094126e-04 -4.8364007255299254e-03 0.0000000000000000e+00  -6.0732472902586356e-04 -8.1393929300437751e-03 0.0000000000000000e+00  -2.6802579072610154e-04 -2.3074893799677814e-03 0.0000000000000000e+00  -7.0930307415399717e-04 -3.0880072660512153e-02 0.0000000000000000e+00  -1.7805867709090818e-03 -3.0866224842568072e-02 0.0000000000000000e+00  2.1374022713507228e-04 -2.2940756726773114e-03 0.0000000000000000e+00  -9.6959626215569652e-05 -2.7158742881714949e-04 0.0000000000000000e+00  -7.5167415479712502e-04 -3.4382917967046962e-02 0.0000000000000000e+00  -9.7651318830128421e-04 -1.3812316993827813e-02 0.0000000000000000e+00  -8.6051153063421170e-04 -1.2567032964464585e-02 0.0000000000000000e+00  3.1285498317912557e-04 -4.0356710577161602e-03 0.0000000000000000e+00  1.5422608697615068e-04 -5.5793084122397123e-04 0.0000000000000000e+00  1.9718954687139475e-04 -9.6555562379456591e-04 0.0000000000000000e+00  2.8456237272178034e-04 -7.1544664540063854e-03 0.0000000000000000e+00  3.5065129126708082e-04 -4.8453531635219175e-03 0.0000000000000000e+00  3.3665144981797663e-04 -8.1536206431812464e-03 0.0000000000000000e+00  -6.1384378826139207e-05 -1.4248664649385781e-04 0.0000000000000000e+00  -8.9508343465022550e-04 -3.5354829605229149e-02 0.0000000000000000e+00  -1.6276191069953590e-03 -2.6660736053947715e-02 0.0000000000000000e+00  -1.5230436665247316e-03 -2.4623047389322767e-02 0.0000000000000000e+00  2.2328147863237866e-04 -1.7426028590127563e-03 0.0000000000000000e+00  -1.4185171887765040e-03 -2.2603808763709547e-02 0.0000000000000000e+00  -6.9601130110411708e-04 -3.2205189174135986e-02 0.0000000000000000e+00  -1.3144507519122083e-03 -2.0609576572503518e-02 0.0000000000000000e+00  -1.2121002262413913e-03 -1.8653356662381645e-02 0.0000000000000000e+00  2.7501312519335558e-04 -6.3317387832275297e-03 0.0000000000000000e+00  -1.1588345088242671e-03 -1.7656357709090350e-02 0.0000000000000000e+00  2.1579677844744410e-04 -9.9147839760470799e-03 0.0000000000000000e+00  -1.0119300423729856e-03 -1.4854003984960111e-02 0.0000000000000000e+00  1.7417101096310454e-04 -1.1601744778732161e-02 0.0000000000000000e+00  -2.0015629077451990e-03 -3.4209373118396537e-02 0.0000000000000000e+00  -5.6468935018449636e-04 -2.9774553238030875e-02 0.0000000000000000e+00  -3.4446878500373856e-04 -2.8319000789842242e-03 0.0000000000000000e+00  1.1832502860167133e-04 -2.9394412720688172e-04 0.0000000000000000e+00  6.2542047535572387e-05 -1.1362138727622217e-04 0.0000000000000000e+00  4.5679143379317704e-05 -1.6633560229040317e-02 0.0000000000000000e+00  -8.5636440814605111e-04 -1.1675735436694271e-02 0.0000000000000000e+00  -2.7896130401888569e-05 -1.8553799728748117e-02 0.0000000000000000e+00  -2.9865057728951813e-04 -2.4524743946473148e-02 0.0000000000000000e+00  -1.2122597911102352e-04 -2.0512391854119776e-02 0.0000000000000000e+00  -2.0760959097846008e-04 -2.2506010674768227e-02 0.0000000000000000e+00  -6.9701337124094740e-04 -1.0026438164706004e-02 0.0000000000000000e+00  9.0849657238488795e-05 -1.4775030079507007e-02 0.0000000000000000e+00  -5.6115103977601784e-04 -6.4029377313729562e-03 0.0000000000000000e+00  -7.2512768417408750e-04 -8.9587084698378033e-03 0.0000000000000000e+00  -4.4295464597332861e-04 -2.7884672056390506e-02 0.0000000000000000e+00  -5.2921889183691815e-04 -5.5233009410904808e-03 0.0000000000000000e+00  -4.8839355633811994e-04 -2.6531773685173250e-02 0.0000000000000000e+00  -2.6730042026594546e-04 -1.7874553022022017e-03 0.0000000000000000e+00  -2.3541668991143550e-04 -1.2890324832559171e-03 0.0000000000000000e+00  -1.9745646995464488e-03 -3.3257893519381798e-02 0.0000000000000000e+00  -1.9381084301215703e-03 -3.1981517518769605e-02 0.0000000000000000e+00  -4.0316215589876058e-04 -2.3853792856033996e-02 0.0000000000000000e+00  -3.1184474007703414e-04 -2.1842556289742375e-02 0.0000000000000000e+00  -1.0886750484706246e-04 -1.7888901977253402e-02 0.0000000000000000e+00  -4.6468801494969995e-04 -2.5866816745709842e-02 0.0000000000000000e+00  -2.2499489336973695e-04 -1.9858796893201955e-02 0.0000000000000000e+00  -2.4307277999604405e-05 -1.5986499612513683e-02 0.0000000000000000e+00  -7.1841727316954845e-04 -1.0567731075784403e-02 0.0000000000000000e+00  2.8203262440145728e-04 -2.7783585464835636e-03 0.0000000000000000e+00  -1.8373189863850102e-03 -2.9850965836368679e-02 0.0000000000000000e+00  -1.7513760403847548e-03 -2.8549793451617178e-02 0.0000000000000000e+00  2.8866581075549487e-04 -3.4623960605874513e-03 0.00