<?xml version="1.0"?>
<VTKFile type="UnstructuredGrid"  version="0.1"  >
<UnstructuredGrid>
<Piece  NumberOfPoints="439" NumberOfCells="725">
<Points>
<DataArray  type="Float64"  NumberOfComponents="3"  format="ascii">0.592818305856854 0.1290306602528341 0  0.5973517528279223 0.1486072354814148 0  0.2489897949 0.21 0  0.2489897949 0.19 0  0.5950850755075264 0.1388189536675025 0  0.2496355385699469 0.2060260530378829 0  0.249959460510575 0.2020130349814059 0  0.2499594605105767 0.1979869650186357 0  0.24963553856995 0.1939739469621422 0  0.2540238506593699 0.2099209450020065 0  0.2590658977940171 0.2098355407815857 0  0.2641065487515122 0.2097272619910261 0  0.2691409861001668 0.2095477026616277 0  0.2741693534880001 0.2093301073503731 0  0.2791996210184335 0.2090584656958559 0  0.2842194474830772 0.2087593114455582 0  0.289229064216414 0.2084112099299499 0  0.2942374094653918 0.2080250404537241 0  0.2992383005130615 0.2076010309916648 0  0.3042403170468342 0.2071266082808549 0  0.3092408087702535 0.2066444688598172 0  0.3142259945165216 0.2061061327042874 0  0.3192203414466336 0.2055382423542488 0  0.3241966444006408 0.2049433513478988 0  0.3291721703276423 0.2043090641023262 0  0.3341412653833677 0.203652342398537 0  0.3391036380434324 0.2029576027278491 0  0.3440583236154693 0.2022476533086282 0  0.3490086677961332 0.2015057650900353 0  0.3539524671457661 0.2007420589668485 0  0.358889358897699 0.1999570707433297 0  0.363825617470487 0.1991375530188791 0  0.3687608457880144 0.1983132935714427 0  0.3736865394079626 0.197458293487607 0  0.3786066984719707 0.1965910164851069 0  0.3835227224433508 0.1957013249566515 0  0.3884337801045488 0.1947957243482503 0  0.3933389845403255 0.1938752821505365 0  0.3982428322300284 0.1929308050839683 0  0.4031457538285028 0.1919842215758553 0  0.4080390675971134 0.1910168516716484 0  0.4129305947723279 0.1900336064769297 0  0.417820920467992 0.189046812746419 0  0.422703562720219 0.1880423789481966 0  0.4275874557944148 0.1870295030470313 0  0.4324644525924998 0.1860066500552986 0  0.437341673294729 0.184972566325258 0  0.4422136214946327 0.1839321795912191 0  0.4470826444784446 0.1828823072339182 0  0.4519504282949699 0.181825933461876 0  0.4568161058602718 0.1807621469338584 0  0.4616780718380919 0.1796919022083971 0  0.4665391425041115 0.1786164547314753 0  0.4713982924847611 0.1775349708292628 0  0.4762544785679892 0.1764484621115751 0  0.4811096202332376 0.1753579752701717 0  0.4859632022806856 0.1742628655303262 0  0.4908145580512056 0.1731642868362891 0  0.4956650424058539 0.172062782569641 0  0.5005143085696637 0.1709579475687249 0  0.5053618831568333 0.1698506177938833 0  0.5102087592747799 0.168741264803825 0  0.5150546738605444 0.1676295984416959 0  0.5198993421730489 0.1665162800928749 0  0.524743545983871 0.165401579422455 0  0.5295870124321409 0.1642854261554565 0  0.5344296858440363 0.1631682338231516 0  0.5392717030143622 0.1620502829679424 0  0.5441131070103552 0.160931471399498 0  0.5489541476083205 0.1598119775254996 0  0.5537950180667188 0.1586924077401944 0  0.5586353570907757 0.1575722099436775 0  0.5634755749133759 0.1564518124400562 0  0.568315470571726 0.1553312821793999 0  0.573155121485143 0.1542105842429448 0  0.5779946735637785 0.1530898954990682 0  0.582834057132116 0.1519691890099749 0  0.5876733354629443 0.1508484823640587 0  0.5925125757428188 0.1497278529836252 0  0.5879791567997662 0.1301513597284543 0  0.583139983411911 0.1312720928044306 0  0.5783008284151882 0.1323928600645197 0  0.5734616958206412 0.1335136401561632 0  0.5686225899511236 0.1346343639189641 0  0.5637835481036036 0.135755051815691 0  0.5589445833625809 0.1368755211469866 0  0.554105801301189 0.1379957459979243 0  0.5492670211235769 0.1391157515027252 0  0.5444284089777858 0.1402351645720206 0  0.5395899488210767 0.1413542248627122 0  0.5347514491484741 0.142472447508 0  0.5299132206897187 0.143589531091869 0  0.5250753015227757 0.1447063204490849 0  0.5202372189009833 0.1458214817884607 0  0.515399533518723 0.1469346382403179 0  0.5105622270994811 0.1480472559133525 0  0.5057244555562722 0.1491572700511058 0  0.5008872192848045 0.1502643277101578 0  0.496050474922071 0.1513705805850208 0  0.4912129311570919 0.1524729986538323 0  0.4863760544275388 0.1535712174341908 0  0.4815397911993739 0.1546683070247272 0  0.4767022900294403 0.1557600721435337 0  0.4718656358419576 0.1568460199497538 0  0.4670295729930697 0.1579297848425487 0  0.4621925910207066 0.159007502629878 0  0.4573562130003401 0.1600771217090316 0  0.4525201372214617 0.1611452297225148 0  0.4476813458763717 0.1622042654690364 0  0.4428446153966174 0.1632525490248683 0  0.438008805606417 0.1642982114036796 0  0.4331711351846861 0.1653321204088163 0  0.4283323792962724 0.1663597939868606 0  0.4234935258830181 0.1673770979661421 0  0.4186529531183246 0.1683811527464334 0  0.4138150921821767 0.169377855316429 0  0.4089745516650664 0.1703607884575602 0  0.4041356065431009 0.1713317954523495 0  0.3992971223588206 0.1722886019038014 0  0.3944569965377173 0.173230018438064 0  0.3896131738431828 0.174159842078452 0  0.3847678473885784 0.1750718602867757 0  0.3799295611711717 0.1759705049365414 0  0.3750835418536878 0.1768486818224512 0  0.3702437050209825 0.177705723130498 0  0.3653969009778632 0.1785473490563072 0  0.3605515035483722 0.1793635159920725 0  0.355701721126803 0.1801641696274448 0  0.3508499438007326 0.1809393271884316 0  0.3460080828404354 0.1816962089371751 0  0.3411556363555721 0.1824258160260617 0  0.33631285986952 0.183125754283483 0  0.331457389817884 0.1838025583458206 0  0.3266048114253491 0.1844396285918901 0  0.3217555583764925 0.1850674710689448 0  0.3168998403042326 0.1856515721141491 0  0.31205815744012 0.186206257224597 0  0.3072020523751842 0.1867306902375099 0  0.3023493414859854 0.1872107795271237 0  0.2974927288854246 0.1876657339233914 0  0.2926345673910665 0.1880770639387078 0  0.2877898620399926 0.188458633892822 0  0.2829294434529144 0.1887986164966493 0  0.2780854258413452 0.1890981643695531 0  0.273229663992161 0.1893477900598211 0  0.2683882236002042 0.1895552334641345 0  0.2635378801916146 0.1897300816994337 0  0.2586873630885041 0.1898531323292127 0  0.2538388840825044 0.1899171280822702 0  0.5939517217429563 0.1339248026181566 0  0.5962184178006146 0.1437130972322934 0  0.2589847283005832 0.2004700971788536 0  0.5394316922976928 0.1517032251516358 0  0.5639898403406606 0.145989931452389 0  0.2774793083387779 0.2000021719862399 0  0.5107247539673757 0.1582189476680598 0  0.5252476664358376 0.1548774273096611 0  0.2944110209103194 0.197316248683073 0  0.5781239875405894 0.1422756798650218 0  0.3103124111264228 0.1964836961841186 0  0.3368502414510601 0.1940422081752753 0  0.4961983765170075 0.1615430085471343 0  0.3548557374128808 0.1904820857844356 0  0.4816670259243173 0.1648415682150162 0  0.3701435973386159 0.187946663280732 0  0.3890445450281528 0.1844974062785518 0  0.4666881242454024 0.1678321273261729 0  0.452243726506379 0.171493619364609 0  0.4033163254295269 0.1818434994315144 0  0.4182521340374297 0.1787299874437868 0  0.4370690913478587 0.1747653847577809 0  0.3201007661544465 0.1954108503574747 0  0.5543676650180521 0.1482390737958731 0  0.4265934974269645 0.176842266303976 0  0.3464414004386523 0.1919501219623599 0  0.3806700765138509 0.1862070303387768 0  0.2860429150312852 0.1986961524739931 0  0.5859975373219507 0.1391134441022978 0  0.2680433692042825 0.2013205567488602 0  0.4600047205167264 0.1721003832660021 0  0.4890953725720003 0.1655772437611535 0  0.5036284741620364 0.1622648066996907 0  0.395927702256001 0.1808848256455126 0  0.4745549168033305 0.1688595639578944 0  0.518156041793714 0.1589311257423467 0  0.445441805388569 0.1752870997198715 0  0.5326796722852143 0.1555833078848071 0  0.4105125755543416 0.1780002626931643 0  0.3618242709742433 0.1870562024293748 0  0.3030899751494375 0.1949775045335457 0  0.5703790125409496 0.1422199765919911 0  0.5459418622300255 0.1472367341203958 0  0.3283598114144413 0.1972556843308255 0  0.5454612314110925 0.1542688876965693 0  0.3295207928568445 0.1903175963647861 0  0.5334411804654836 0.1490918699063343 0  0.5189229719906312 0.1524403999911256 0  0.5044035558627405 0.1557751831018042 0  0.5739112983607458 0.1477187753799404 0  0.3014760672623663 0.2012837756874891 0  0.4753576463975271 0.1623737464123566 0  0.4898821508865722 0.1590892607437187 0  0.3949237257719299 0.1873338664652077 0  0.3606541609422151 0.193470981664492 0  0.4565342480816044 0.1665663444040589 0  0.4462938925516218 0.1688087724401246 0  0.4095636689788865 0.1844599740179907 0  0.2557453395645279 0.1960500679096186 0  0.255046134821019 0.203414734968219 0  0.43402498106181 0.179299636158528 0  0.3733354702672547 0.1835246437929697 0  0.3397695344451013 0.1887791334340782 0  0.2810458314248129 0.1950243336859883 0  0.2909400760782352 0.1943645572529292 0  0.4240889604843423 0.1815696918337594 0  0.3491863613791957 0.1873653478341358 0  0.3832794702271082 0.1815400645833971 0  0.3160706158088574 0.1919970221107415 0  0.5588966972583737 0.1510995199810291 0  0.5574317933028093 0.1434923421581026 0  0.3165450157008777 0.1997094664758205 0  0.2709067219125012 0.1954788740338273 0  0.5837256832150777 0.1463202891620487 0  0.4321679332440334 0.1711658638076313 0  0.4221117153312059 0.1737016641635963 0  0.3406466471659764 0.1975019566709257 0  0.2811339583022648 0.203759659336874 0  0.2917380270762581 0.2030256481791222 0  0.374913426954337 0.1917034031951858 0  0.3503311876882373 0.1964350248545699 0  0.3846924150668399 0.1905833652568387 0  0.2646997466521654 0.1959513252187633 0  0.590446046019183 0.1440613725719838 0  0.5276317531608482 0.149937273706804 0  0.5131134205758099 0.1532809621092492 0  0.3073396272320053 0.2011837892218979 0  0.4985938272410912 0.1566083333855746 0  0.5683296821145662 0.1494981241955631 0  0.484072082399407 0.1599116859024094 0  0.4695889244125093 0.1631677250614591 0  0.366510717221195 0.1929903953365124 0  0.462093912
[...]
<PointData  Vectors="f_20-1"> 
<DataArray  type="Float64"  Name="f_20-1"  NumberOfComponents="3" format="ascii">-7.1816941431459705e-03 -6.0969339747165854e-02 0.0000000000000000e+00  -2.6482471720774840e-03 -6.1392764518585198e-02 0.0000000000000000e+00  0.0000000000000000e+00 0.0000000000000000e+00 0.0000000000000000e+00  0.0000000000000000e+00 0.0000000000000000e+00 0.0000000000000000e+00  -4.9149244924734346e-03 -6.1181046332497532e-02 0.0000000000000000e+00  0.0000000000000000e+00 0.0000000000000000e+00 0.0000000000000000e+00  0.0000000000000000e+00 0.0000000000000000e+00 0.0000000000000000e+00  0.0000000000000000e+00 0.0000000000000000e+00 0.0000000000000000e+00  0.0000000000000000e+00 0.0000000000000000e+00 0.0000000000000000e+00  9.0250053740669004e-05 -7.9054997993481671e-05 0.0000000000000000e+00  1.8849148276284155e-04 -1.6445921841425976e-04 0.0000000000000000e+00  2.8533673462008435e-04 -2.7273800897383032e-04 0.0000000000000000e+00  3.7596837763686721e-04 -4.5229733837230738e-04 0.0000000000000000e+00  4.6053005984325200e-04 -6.6989264962687275e-04 0.0000000000000000e+00  5.4699188465819320e-04 -9.4153430414408031e-04 0.0000000000000000e+00  6.2301264368349609e-04 -1.2406885544418060e-03 0.0000000000000000e+00  6.8882367139747123e-04 -1.5887900700501216e-03 0.0000000000000000e+00  7.5336321473961992e-04 -1.9749595462759191e-03 0.0000000000000000e+00  8.1044855679077339e-04 -2.3989690083352317e-03 0.0000000000000000e+00  8.6865938493439787e-04 -2.8733917191451305e-03 0.0000000000000000e+00  9.2534540273538318e-04 -3.3555311401827622e-03 0.0000000000000000e+00  9.6672544338507517e-04 -3.8938672957125409e-03 0.0000000000000000e+00  1.0172666678786939e-03 -4.4617576457512088e-03 0.0000000000000000e+00  1.0497639162676561e-03 -5.0566486521011105e-03 0.0000000000000000e+00  1.0814841376506298e-03 -5.6909358976738522e-03 0.0000000000000000e+00  1.1067734877469857e-03 -6.3476576014629910e-03 0.0000000000000000e+00  1.1253404422040222e-03 -7.0423972721508753e-03 0.0000000000000000e+00  1.1362203086117400e-03 -7.7523466913718229e-03 0.0000000000000000e+00  1.1427587836572066e-03 -8.4942349099647284e-03 0.0000000000000000e+00  1.1427524276716157e-03 -9.2579410331514542e-03 0.0000000000000000e+00  1.1358384739862558e-03 -1.0042929256670325e-02 0.0000000000000000e+00  1.1282913411559223e-03 -1.0862446981120906e-02 0.0000000000000000e+00  1.1197139530647951e-03 -1.1686706428557294e-02 0.0000000000000000e+00  1.1016018673837349e-03 -1.2541706512392984e-02 0.0000000000000000e+00  1.0779552257829676e-03 -1.3408983514893082e-02 0.0000000000000000e+00  1.0501734915388443e-03 -1.4298675043348546e-02 0.0000000000000000e+00  1.0174254471150613e-03 -1.5204275651749661e-02 0.0000000000000000e+00  9.7882417726244853e-04 -1.6124717849463534e-02 0.0000000000000000e+00  9.3886616135776450e-04 -1.7069194916031642e-02 0.0000000000000000e+00  8.9798205420419351e-04 -1.8015778424144716e-02 0.0000000000000000e+00  8.4749011720269504e-04 -1.8983148328351622e-02 0.0000000000000000e+00  7.9521158679679842e-04 -1.9966393523070242e-02 0.0000000000000000e+00  7.4173157684030711e-04 -2.0953187253580949e-02 0.0000000000000000e+00  6.8056812345533948e-04 -2.1957621051803364e-02 0.0000000000000000e+00  6.2065549202305263e-04 -2.2970496952968725e-02 0.0000000000000000e+00  5.5384658447462916e-04 -2.3993349944701398e-02 0.0000000000000000e+00  4.8726158105172140e-04 -2.5027433674741962e-02 0.0000000000000000e+00  4.1540407529975251e-04 -2.6067820408780876e-02 0.0000000000000000e+00  3.4062135344803727e-04 -2.7117692766081818e-02 0.0000000000000000e+00  2.6459946432534946e-04 -2.8174066538124019e-02 0.0000000000000000e+00  1.8647132398539866e-04 -2.9237853066141614e-02 0.0000000000000000e+00  1.0463159617586866e-04 -3.0308097791602824e-02 0.0000000000000000e+00  2.1896556544951063e-05 -3.1383545268524715e-02 0.0000000000000000e+00  -6.2759168438615703e-05 -3.2465029170737132e-02 0.0000000000000000e+00  -1.5037879087758600e-04 -3.3551537888424875e-02 0.0000000000000000e+00  -2.3904283127581586e-04 -3.4642024729828261e-02 0.0000000000000000e+00  -3.2926648949043076e-04 -3.5737134469673776e-02 0.0000000000000000e+00  -4.2171642460110052e-04 -3.6835713163710877e-02 0.0000000000000000e+00  -5.1503777560717710e-04 -3.7937217430359008e-02 0.0000000000000000e+00  -6.0957731742600132e-04 -3.9042052431275141e-02 0.0000000000000000e+00  -7.0580843591608875e-04 -4.0149382206116684e-02 0.0000000000000000e+00  -8.0273802360732887e-04 -4.1258735196175018e-02 0.0000000000000000e+00  -9.0062914345921837e-04 -4.2370401558304113e-02 0.0000000000000000e+00  -9.9976653659247967e-04 -4.3483719907125094e-02 0.0000000000000000e+00  -1.0993684314292093e-03 -4.4598420577544984e-02 0.0000000000000000e+00  -1.1997076887981691e-03 -4.5714573844543478e-02 0.0000000000000000e+00  -1.3008399825625069e-03 -4.6831766176848415e-02 0.0000000000000000e+00  -1.4026285178745479e-03 -4.7949717032057616e-02 0.0000000000000000e+00  -1.5050302274975311e-03 -4.9068528600501954e-02 0.0000000000000000e+00  -1.6077953351702923e-03 -5.0188022474500348e-02 0.0000000000000000e+00  -1.7107305824267632e-03 -5.1307592259805621e-02 0.0000000000000000e+00  -1.8141972640126375e-03 -5.2427790056322490e-02 0.0000000000000000e+00  -1.9177851470720745e-03 -5.3548187559943811e-02 0.0000000000000000e+00  -2.0216951943855849e-03 -5.4668717820600038e-02 0.0000000000000000e+00  -2.1258499866029434e-03 -5.5789415757055157e-02 0.0000000000000000e+00  -2.2301036136049487e-03 -5.6910104500931848e-02 0.0000000000000000e+00  -2.3345257509180027e-03 -5.8030810990025126e-02 0.0000000000000000e+00  -2.4390531257365935e-03 -5.9151517635941307e-02 0.0000000000000000e+00  -2.5436185515217463e-03 -6.0272147016374789e-02 0.0000000000000000e+00  -7.0770374946170613e-03 -5.9848640271545683e-02 0.0000000000000000e+00  -6.9724051768472305e-03 -5.8727907195569376e-02 0.0000000000000000e+00  -6.8677544679311047e-03 -5.7607139935480292e-02 0.0000000000000000e+00  -6.7630813568314444e-03 -5.6486359843836806e-02 0.0000000000000000e+00  -6.6583815207278867e-03 -5.5365636081035931e-02 0.0000000000000000e+00  -6.5536176626271540e-03 -5.4244948184309007e-02 0.0000000000000000e+00  -6.4487766980372225e-03 -5.3124478853013440e-02 0.0000000000000000e+00  -6.3437530537999737e-03 -5.2004254002075666e-02 0.0000000000000000e+00  -6.2387275257810250e-03 -5.0884248497274735e-02 0.0000000000000000e+00  -6.1335339659176454e-03 -4.9764835427979319e-02 0.0000000000000000e+00  -6.0281884170276072e-03 -4.8645775137287829e-02 0.0000000000000000e+00  -5.9228823840306059e-03 -4.7527552492000032e-02 0.0000000000000000e+00  -5.8173051371772375e-03 -4.6410468908130963e-02 0.0000000000000000e+00  -5.7114185984873597e-03 -4.5293679550915136e-02 0.0000000000000000e+00  -5.6056955146795264e-03 -4.4178518211539342e-02 0.0000000000000000e+00  -5.4995751913012383e-03 -4.3065361759682078e-02 0.0000000000000000e+00  -5.3930759049407159e-03 -4.1952744086647425e-02 0.0000000000000000e+00  -5.2870417425503174e-03 -4.0842729948894207e-02 0.0000000000000000e+00  -5.1804723084132734e-03 -3.9735672289842143e-02 0.0000000000000000e+00  -5.0734109655096180e-03 -3.8629419414979188e-02 0.0000000000000000e+00  -4.9671490248802130e-03 -3.7527001346167738e-02 0.0000000000000000e+00  -4.8602200488142514e-03 -3.6428782565809198e-02 0.0000000000000000e+00  -4.7526775713603560e-03 -3.5331692975272867e-02 0.0000000000000000e+00  -4.6463730356643296e-03 -3.4239927856466304e-02 0.0000000000000000e+00  -4.5392215175391092e-03 -3.3153980050246182e-02 0.0000000000000000e+00  -4.4314786607986380e-03 -3.2070215157451232e-02 0.0000000000000000e+00  -4.3246549275488795e-03 -3.0992497370122010e-02 0.0000000000000000e+00  -4.2172272422947655e-03 -2.9922878290968451e-02 0.0000000000000000e+00  -4.1094973155487140e-03 -2.8854770277485193e-02 0.0000000000000000e+00  -4.0044829550091466e-03 -2.7795734530963560e-02 0.0000000000000000e+00  -3.8974077291542022e-03 -2.6747450975131731e-02 0.0000000000000000e+00  -3.7894118137295264e-03 -2.5701788596320392e-02 0.0000000000000000e+00  -3.6832765298435784e-03 -2.4667879591183724e-02 0.0000000000000000e+00  -3.5782267126406872e-03 -2.3640206013139462e-02 0.0000000000000000e+00  -3.4732744202684456e-03 -2.2622902033857938e-02 0.0000000000000000e+00  -3.3700414793235204e-03 -2.1618847253566546e-02 0.0000000000000000e+00  -3.2640967098288990e-03 -2.0622144683570962e-02 0.0000000000000000e+00  -3.1608315212929929e-03 -1.9639211542439809e-02 0.0000000000000000e+00  -3.0559709375986119e-03 -1.8668204547650478e-02 0.0000000000000000e+00  -2.9506494162272936e-03 -1.7711398096198608e-02 0.0000000000000000e+00  -2.8469695316727822e-03 -1.6769981561935935e-02 0.0000000000000000e+00  -2.7469865205719435e-03 -1.5840157921547998e-02 0.0000000000000000e+00  -2.6485072695297475e-03 -1.4928139713224270e-02 0.0000000000000000e+00  -2.5429877813106473e-03 -1.4029495063458602e-02 0.0000000000000000e+00  -2.4452013931379976e-03 -1.3151318177548868e-02 0.0000000000000000e+00  -2.3412325201947050e-03 -1.2294276869502034e-02 0.0000000000000000e+00  -2.2442308576453465e-03 -1.1452650943692796e-02 0.0000000000000000e+00  -2.1458225814891224e-03 -1.0636484007927539e-02 0.0000000000000000e+00  -2.0517992974078050e-03 -9.8358303725552144e-03 0.0000000000000000e+00  -1.9597709178564085e-03 -9.0606728115684241e-03 0.0000000000000000e+00  -1.8578261724955510e-03 -8.3037910628248699e-03 0.0000000000000000e+00  -1.7664669517199574e-03 -7.5741839739382859e-03 0.0000000000000000e+00  -1.6654377321335405e-03 -6.8742457165169146e-03 0.0000000000000000e+00  -1.5771020781311189e-03 -6.1974416541794178e-03 0.0000000000000000e+00  -1.4858747650259956e-03 -5.5603714081099223e-03 0.0000000000000000e+00  -1.3913221082246282e-03 -4.9325289310551187e-03 0.0000000000000000e+00  -1.3032344748265851e-03 -4.3484278858508946e-03 0.0000000000000000e+00  -1.2011116332812650e-03 -3.7937427754029382e-03 0.0000000000000000e+00  -1.1134109925740015e-03 -3.2693097624901081e-03 0.0000000000000000e+00  -1.0223161761343683e-03 -2.7892204728763607e-03 0.0000000000000000e+00  -9.3512307105674008e-04 -2.3342660766085170e-03 0.0000000000000000e+00  -8.4947885977636076e-04 -1.9229360612922251e-03 0.0000000000000000e+00  -7.5037850519477230e-04 -1.5413661071779752e-03 0.0000000000000000e+00  -6.6699138661521057e-04 -1.2013835033507700e-03 0.0000000000000000e+00  -5.6720329252638404e-04 -9.0183563044693384e-04 0.0000000000000000e+00  -4.7915943606331886e-04 -6.5220994017884195e-04 0.0000000000000000e+00  -3.7679412238174321e-04 -4.4476653586549377e-04 0.0000000000000000e+00  -2.8333182533298631e-04 -2.6991830056630179e-04 0.0000000000000000e+00  -1.9004322280531243e-04 -1.4686767078725272e-04 0.0000000000000000e+00  -9.4716523153422051e-05 -8.2871917729776992e-05 0.0000000000000000e+00  -6.0482782570436718e-03 -6.1075197381821676e-02 0.0000000000000000e+00  -3.7815821993852760e-03 -6.1286902767679473e-02 0.0000000000000000e+00  1.1301768933979361e-05 -8.2292163986683395e-05 0.0000000000000000e+00  -3.7145420876148619e-03 -4.8296774848333140e-02 0.0000000000000000e+00  -4.2499491361555472e-03 -5.3980527128509717e-02 0.0000000000000000e+00  2.7915626975449009e-05 -7.9201995595265290e-04 0.0000000000000000e+00  -3.1248294095210611e-03 -4.1683394981032060e-02 0.0000000000000000e+00  -3.4333340579002520e-03 -4.5024915339435791e-02 0.0000000000000000e+00  -9.9874295445378489e-05 -1.9749421574656511e-03 0.0000000000000000e+00  -4.6540955979033393e-03 -5.7267300235313096e-02 0.0000000000000000e+00  -1.0042853050282893e-04 -3.4867623967791621e-03 0.0000000000000000e+00  -1.4993409079494158e-04 -6.7872530681214460e-03 0.0000000000000000e+00  -2.8197897430384481e-03 -3.8359334101955897e-02 0.0000000000000000e+00  -4.2588015802347994e-04 -9.5179142156252283e-03 0.0000000000000000e+00  -2.5197232188753035e-03 -3.5060774434068707e-02 0.0000000000000000e+00  -5.9377405193923127e-04 -1.2067574414636855e-02 0.0000000000000000e+00  -8.4371248209683873e-04 -1.5502593721531023e-02 0.0000000000000000e+00  -2.2976308038710844e-03 -3.1709545099496590e-02 0.0000000000000000e+00  -1.9140051778177129e-03 -2.8506380635300820e-02 0.0000000000000000e+00  -1.0371659723060701e-03 -1.8254157919410017e-02 0.0000000000000000e+00  -1.2989577065271856e-03 -2.1270012556318892e-02 0.0000000000000000e+00  -1.6328865165925355e-03 -2.5220377546896329e-02 0.0000000000000000e+00  -1.4650887122373592e-04 -4.5980338571652143e-03 0.0000000000000000e+00  -4.0376890900328160e-03 -5.1752041989484625e-02 0.0000000000000000e+00  -1.4732172617489081e-03 -2.3006638516848133e-02 0.0000000000000000e+00  -3.2459418789505053e-04 -8.2009732170775958e-03 0.0000000000000000e+00  -7.0255805203988883e-04 -1.3944064840675272e-02 0.0000000000000000e+00  -2.5422660924529920e-05 -1.3453920966251481e-03 0.0000000000000000e+00  -5.1248438561687006e-03 -5.9131471832576610e-02 0.0000000000000000e+00  5.4053058419857363e-05 -3.5456889786886366e-04 0.0000000000000000e+00  -1.5687197259014202e-03 -3.0149980062798190e-02 0.0000000000000000e+00  -2.1409019043451406e-03 -3.6673119567655663e-02 0.0000000000000000e+00  -2.4392174311619703e-03 -3.9985556629121163e-02 0.0000000000000000e+00  -1.3762638126763656e-03 -1.6864811025683869e-02 0.0000000000000000e+00  -1.8499405561591858e-03 -3.3390799370910759e-02 0.0000000000000000e+00  -2.7430669163312823e-03 -4.3319237586471653e-02 0.0000000000000000e+00  -1.3002177371967392e-03 -2.6963263608928544e-02 0.0000000000000000e+00  -3.0508535416706511e-03 -4.6667055444012791e-02 0.0000000000000000e+00  -1.6228076311900889e-03 -1.9749373978033346e-02 0.0000000000000000e+00  -8.7305515509199911e-04 -1.0693434241817085e-02 0.0000000000000000e+00  -2.8168251245862496e-04 -2.7721321376411442e-03 0.0000000000000000e+00  -4.9019589308733381e-03 -5.5529660079159125e-02 0.0000000000000000e+00  -4.5179936890306577e-03 -4.9891744353370918e-02 0.0000000000000000e+00  1.6703819975724102e-04 -5.6158371954150785e-03 0.0000000000000000e+00  -2.9566706386536497e-03 -4.9571433872906946e-02 0.0000000000000000e+00  -7.1393422715434844e-04 -5.8420820657630497e-03 0.0000000000000000e+00  -4.4799047583277728e-03 -4.7033311758076665e-02 0.0000000000000000e+00  -4.1666961163341638e-03 -4.3684781673280160e-02 0.0000000000000000e+00  -3.8546951273818074e-03 -4.0349998562605613e-02 0.0000000000000000e+00  -3.5602325079636832e-03 -5.6156042955648258e-02 0.0000000000000000e+00  2.9496899741141149e-04 -2.5910426481045965e-03 0.0000000000000000e+00  -3.2377703588839638e-03 -3.3751435252047449e-02 0.0000000000000000e+00  -3.5446829866949267e-03 -3.7035920920687658e-02 0.0000000000000000e+00  -1.8968089983308238e-04 -1.6540951870388891e-02 0.0000000000000000e+00  1.4739420980341750e-04 -1.0403836671103103e-02 0.0000000000000000e+00  -2.8486327641102124e-03 -2.9558837260340410e-02 0.0000000000000000e+00  -2.6386899710586077e-03 -2.7316409224276052e-02 0.0000000000000000e+00  -3.8115480973543591e-04 -1.9414844317608385e-02 0.0000000000000000e+00  -4.0960415669077745e-05 -3.5769116110906252e-05 0.0000000000000000e+00  3.1398790079106942e-05 -2.7908030892452920e-05 0.0000000000000000e+00  -7.7816658465882814e-04 -2.4474121605627418e-02 0.0000000000000000e+00  -1.3007313411552762e-03 -1.2701598442885582e-02 0.0000000000000000e+00  -8.5630214132907125e-04 -7.2676587599107773e-03 0.0000000000000000e+00  -2.5433669417045416e-04 -1.0224585080618545e-03 0.0000000000000000e+00  -3.2856266575408751e-04 -1.7170756119989246e-03 0.0000000000000000e+00  -5.8157309764689659e-04 -2.2383515972195005e-02 0.0000000000000000e+00  -9.7581435371734294e-04 -8.6814443600519292e-03 0.0000000000000000e+00  -1.4893454451612121e-03 -1.4506727610838830e-02 0.0000000000000000e+00  -5.6175272949864075e-04 -4.1624364526284714e-03 0.0000000000000000e+00  -3.2583038469671949e-03 -5.2682129278870067e-02 0.0000000000000000e+00  -5.0095943991677301e-03 -5.2583850203035118e-02 0.0000000000000000e+00  3.0551211756480183e-04 -4.1584892666486663e-03 0.0000000000000000e+00  -1.8199150826099381e-04 -4.9077029875650474e-04 0.0000000000000000e+00  -3.5757544252824781e-03 -5.8402498941033568e-02 0.0000000000000000e+00  -2.5000234002374344e-03 -2.4299282147620033e-02 0.0000000000000000e+00  -2.2179350765927212e-03 -2.2174033930309898e-02 0.0000000000000000e+00  3.9069608262401500e-04 -7.2920933581666026e-03 0.0000000000000000e+00  2.6546562617152326e-04 -1.0145824443915982e-03 0.0000000000000000e+00  3.3032376238591209e-04 -1.7553035279733380e-03 0.0000000000000000e+00  1.4203434384382841e-04 -1.2831450849669582e-02 0.0000000000000000e+00  4.0953879835062116e-04 -8.7403164640604998e-03 0.0000000000000000e+00  1.6412623761006984e-04 -1.4591976061797338e-02 0.0000000000000000e+00  -1.1473989333977021e-04 -2.5764907987411425e-04 0.0000000000000000e+00  -3.8787183471063018e-03 -5.9980169786934386e-02 0.0000000000000000e+00  -4.4655078847662764e-03 -4.5707236198283291e-02 0.0000000000000000e+00  -4.1524233529626736e-03 -4.2363547795836183e-02 0.0000000000000000e+00  3.4730167173952360e-04 -3.1630141653572054e-03 0.0000000000000000e+00  -3.8405995708352333e-03 -3.9036176519511773e-02 0.0000000000000000e+00  -3.3306214588688069e-03 -5.4848679191712983e-02 0.0000000000000000e+00  -3.5309272956670539e-03 -3.5732824002673719e-02 0.0000000000000000e+00  -3.2262731171171194e-03 -3.2472521829530331e-02 0.0000000000000000e+00  1.8053956844116915e-04 -1.1377059527347572e-02 0.0000000000000000e+00  -3.0691877356431615e-03 -3.0802345038703424e-02 0.0000000000000000e+00  -1.7281587698197661e-04 -1.7661997213295696e-02 0.0000000000000000e+00  -2.6303166762019310e-03 -2.6072653241272881e-02 0.0000000000000000e+00  -3.6879006168032672e-04 -2.0582877405104515e-02 0.0000000000000000e+00  -5.6058362628567055e-03 -5.8030811964442819e-02 0.0000000000000000e+00  -2.9427670752938269e-03 -5.0884399951663918e-02 0.0000000000000000e+00  -7.2277293642966677e-04 -5.1015424386767292e-03 0.0000000000000000e+00  2.0742529074305074e-04 -5.3455667999609811e-04 0.0000000000000000e+00  1.1034220295146691e-04 -2.0630815620961809e-04 0.0000000000000000e+00  -9.6508170266943220e-04 -2.9163829587979303e-02 0.0000000000000000e+00  -2.1515341338545720e-03 -2.0639554162462773e-02 0.0000000000000000e+00  -1.2335718561805747e-03 -3.2389860309953354e-02 0.0000000000000000e+00  -2.1265052854929846e-03 -4.2288382890809217e-02 0.0000000000000000e+00  -1.5361479543880372e-03 -3.5655847507740271e-02 0.0000000000000000e+00  -1.8275925866228059e-03 -3.8960260415960936e-02 0.0000000000000000e+00  -1.7670165124890934e-03 -1.7795057373865678e-02 0.0000000000000000e+00  -7.4854987847012861e-04 -2.6016036414436887e-02 0.0000000000000000e+00  -1.3015360321374115e-03 -1.1452339668184305e-02 0.0000000000000000e+00  -1.7474605954080811e-03 -1.5932354390639936e-02 0.0000000000000000e+00  -2.6076717860946800e-03 -4.7798580710357322e-02 0.0000000000000000e+00  -1.1939986818578249e-03 -9.8962343835941966e-03 0.0000000000000000e+00  -2.5847207243214878e-03 -4.5576294952959021e-02 0.0000000000000000e+00  -5.3877854316099086e-04 -3.2256164356165330e-03 0.0000000000000000e+00  -4.6251745115382281e-04 -2.3273880296260591e-03 0.0000000000000000e+00  -5.4947165125565009e-03 -5.6478363992710022e-02 0.0000000000000000e+00  -5.3454656679985686e-03 -5.4395523425102905e-02 0.0000000000000000e+00  -2.2501018315343566e-03 -4.1174685148530135e-02 0.0000000000000000e+00  -1.9517206487969932e-03 -3.7853549425543427e-02 0.0000000000000000e+00  -1.3200314840270447e-03 -3.1268219566111449e-02 0.0000000000000000e+00  -2.4977248472035835e-03 -4.4485602647930819e-02 0.0000000000000000e+00  -1.6608718976382586e-03 -3.4559116616131647e-02 0.0000000000000000e+00  -1.0352105644110454e-03 -2.8064736346958295e-02 0.0000000000000000e+00  -1.8397911296003174e-03 -1.8733402911406190e-02 0.0000000000000000e+00  4.0432496309040675e-04 -5.0339338748388628e-03 0.0000000000000000e+00  -5.0314274709535528e-03 -5.0919483081590340e-02 0.0000000000000000e+00  -4.7998925645679992e-03 -4.8795795346306584e-02 0.0000000000000000e+00  3.7999313175660207e