<?xml version="1.0"?>
<VTKFile type="UnstructuredGrid"  version="0.1"  >
<UnstructuredGrid>
<Piece  NumberOfPoints="258" NumberOfCells="697">
<Points>
<DataArray  type="Float64"  NumberOfComponents="3"  format="ascii">1.835188936345112 0.2050000000000699 0  1.838465412967181 0.2953145553852501 0  1.915883512473161 0.2050000000000692 0  1.833166318986108 0.1007828475280248 0  2.383594446803656 0.41 0  2.271253957291315 0.41 0  2.346386298105263 0.3062476289039515 0  0.6300528284996487 0.2292604486710743 0  0.65429728832161 0.2353880751391984 0  0.6456429596876728 0.2209784072651823 0  0.6244559818022579 0.1024805481876779 0  0.6331542554485198 0.1311064488920115 0  0.604876951083344 0.1323679928240978 0  0.5950070799606315 0.1111116928105405 0  0.7179098792074922 0.09515556231434774 0  0.6930564374308674 0.1341308449452096 0  0.6808979566904864 0.09264351137968369 0  1.943162250261133 0.2848182236928814 0  1.943162250261127 0.1251817763071746 0  2.244824738199097 0.3091885999356265 0  1.317087908068179 0.2834507950760127 0  1.416789257258389 0.3075294577736497 0  1.357724299039236 0.2303555143487852 0  2.383594446803425 0 0  2.301748441448983 0.1032848369023014 0  2.415100580332905 0.08367007402675902 0  0.883612004374276 0.2044999257790265 0  0.941405262964606 0.2275541950732263 0  0.8724873572796065 0.2505182730032114 0  0.6580228992389956 0.1177787934340178 0  0.6385847074107548 0.1562173919888177 0  0.6641520523959832 0.1503720468916702 0  1.674965418778818 0.41 0  1.58737143976041 0.41 0  1.617304647871871 0.3102553946317155 0  1.587371439758838 0 0  1.674965418777374 0 0  1.627799041349754 0.08170835291169204 0  1.122434100544716 0.41 0  1.068894913355815 0.339699543595371 0  1.154144739340952 0.3428674566149401 0  0.9084404882614506 0.2892191224003848 0  1.215451113850732 0.2103314603357224 0  1.249863529963017 0.2672258935273379 0  1.176331347569866 0.2754551993599315 0  0.7101078070491313 0.04593780015520291 0  0.7273492824638629 0.1308306999820452 0  2.01253088870001 0.2050000000000507 0  0.6699818017210338 0.05718888729500279 0  0.589683001657349 0.3059206033515077 0  0.629251049118315 0.3129131677620721 0  0.6129037791821019 0.2898142990521698 0  0.9882218810956305 0.41 0  0.9246101326886647 0.41 0  0.9513232956593279 0.344238796639219 0  1.419591277297145 0.2050000000000071 0  0.8632198139519631 0.41 0  0.882513772872486 0.3520608410452225 0  0.8202234869765325 0.364591028094237 0  1.421253448505726 0.41 0  1.355827918100823 0.3414955155607449 0  1.421253448503939 0 0  1.418271536314166 0.09353562972960013 0  1.355827918100725 0.06850448443910542 0  0.7991030424147842 0.1996369747921017 0  0.755404159289092 0.1590232243285952 0  0.7509674852354215 0.2077605643765068 0  0.8502354418587501 0.1560244879407868 0  0.9215858179635137 0.1737964996919513 0  0.9080221499231149 0.1220333110997775 0  1.122434100542598 0 0  1.070453094842314 0.06960241275844714 0  1.154904552424504 0.06969164993518225 0  0.6158241656144056 0.2465955912391796 0  0.6368758304361363 0.2529361994816268 0  1.017753695734191 0.3624508760213758 0  2.271253957290865 0 0  0.8363367911675036 0.3257327955680793 0  1.05413544556068 0.41 0  2.221794121152559 0.193316850609006 0  2.14411344490712 0.1276195594235362 0  2.20472152769965 0.0713281875562741 0  0.6156282497854896 0.2673949998438289 0  0.5916500441695769 0.2809526698769227 0  0.5926483197196849 0.2655989755524508 0  0.6321311710823254 0.06153785161297727 0  0.595034110037278 0.08371649311769892 0  0.5857082964501902 0.1444062384003248 0  0.5975491358239944 0.1534040596821995 0  1.002160515162412 0.1007971030886586 0  1.051646085559005 0.1501053523947661 0  0.6034720826395079 0.3406552446218118 0  2.162836591190598 0.41 0  2.147307993563104 0.2912592059815138 0  0.7970763259525799 0.1414049767778835 0  0.7014764931779993 0.1925000000000107 0  0.685561679424891 0.2295161340218305 0  0.6773925486195326 0.2026632733038183 0  0.8757744372027163 0.0680967899541615 0  0.9457932773848412 0.0667989600995588 0  1.054135445558498 0 0  2.038256300678318 0.30845338105422 0  2.047027225616214 0.1093313109621388 0  0.7467958595648856 0 0  0.8039733463919316 0 0  0.7693776708684824 0.05639711714283061 0  0.9246101326867038 0 0  0.9882218810934433 0 0  1.005346589798493 0.3067901807747939 0  1.048577150438126 0.2582185237349715 0  1.481410117014457 0.06937107043222147 0  1.48141011701467 0.3406289295679558 0  1.112767688411364 0.1251261100534626 0  1.171970583870903 0.1546087622866204 0  1.524155460997452 0.2819410593007779 0  1.564450317521975 0.2271796767815198 0  1.465985145565885 0.2641043271703594 0  1.342519516048286 0.41 0  1.266535089881505 0.41 0  1.274599158297837 0.3398495556128484 0  1.266535089879536 0 0  1.342519516046404 0 0  1.279016580461126 0.07083697001675755 0  0.8625643833134949 0.2947679371372982 0  0.6622141672544596 0.2596384679938497 0  1.21281999103096 0.3139909211204517 0  1.019068245937061 0.0469337202247656 0  2.108400983319523 0.2055533675589543 0  0.9665635209117881 0.1540989494284837 0  1.008472627814504 0.204999999999892 0  1.111528583326901 0.2818863422907276 0  2.373655112860451 0.1537499999996177 0  1.628719644697639 0.2049999999998413 0  1.211433695886656 0.1017136889209831 0  0.6341981541449615 0.3582841585921612 0  0.6186516859309905 0.2076004596739355 0  0.6330574554272607 0.20858417289079 0  0.6200567937109939 0.1981193972299755 0  0.8280582783289157 0.04600943632764167 0  0.7467958595662458 0.41 0  0.6916151138480078 0.41 0  0.7140255670996881 0.3646166311524474 0  1.701137648393037 0.3376494258761434 0  1.700761363836473 0.07263158433296307 0  0.6659720908852078 0.2972353895876497 0  0.6940661166801609 0.2673943882596362 0  0.763519512252238 0.1106765968361548 0  0.6153880197825543 0.1501582873444675 0  0.5989004035231642 0.2514987524731583 0  2.102498890674862 0.3526963313409883 0  0.6295540558938247 0.1924839069479658 0  0.6341710204839701 0.1765827244303529 0  0.6426099985752125 0.1947200777786613 0  1.146963556870385 0.2220662070926035 0  0.615208009837415 0.2301771304243292 0  0.7666101362390253 0.3578469139891653 0  1.313454781190754 0.1289288827375083 0  1.297747271073664 0.2033748759239161 0  1.375324131717186 0.1546989106163036 0  0.7236859362722395 0.2517828338101294 0  0.7667165827043843 0.2524551100397078 0  1.084668006184735 0.2128250251286081 0  0.814691562998009 0.09619193426127341 0  1.545933585256563 0.3495591173405724 0  0.7613343746328384 0.3026779105476945 0  0.8174223541212756 0.2698453306575623 0  0.7176052736190859 0.2162836958912044 0  1.675302090383742 0.2650203692236395 0  0.6210712537558437 0.2177951339896733 0  0.6711932754123612 0.1788117674793375 0  1.552569533868087 0.0624528013784801 0  0.6570334029219593 0.3356135508988682 0  0.7959218455617475 0.3268864684847159 0  1.193204177143353 0.41 0  1.193204177141305 0 0  0.5932743238853959 0.04945528001359441 0  0.6649882407551387 0.02261378243973851 0  1.859776908881246 0.41 0  1.77165877836765 0.3410140663813219 0  1.859776908880082 0 0  1.771658778367727 0.06898593361867472 0  0.6083886978654316 0.1626240187349565 0  0.8039733463934788 0.41 0  1.765729001826854 0.41 0  1.765729001825544 0 0  1.518790312518014 0.1283243218597927 0  1.503227144622031 0.2021724267143327 0  1.582623387495486 0.1516962052714668 0  0.5869673343216626 0 0  0.619281841121555 0.02915265998465505 0  2.419800870255347 0.3337695350602363 0  1.118750868833027 0.1743068070907049 0  0.9108122465318981 0.04113381345596949 0  0.6993284284288891 0.3008982894693075 0  0.6641604129055072 0.2170430078016702 0  0.953518183350995 0.1113177413147439 0  0.7293997039068749 0.1878315768275717 0  0.860027688655414 0.1096039208573359 0  0.5869673343225223 0.41 0  0.5770529515268702 0.3629450529032476 0  0.6084037118460524 0.3780069571238127 0  0.8632198139502143 0 0  0.7294932489647475 0.2840789881590486 0  1.255220929810424 0.1520691346915538 0  1.502836389106271 0 0  1.502836389107956 0.41 0  1.221368790720609 0.3632125781021275 0  1.221874249400422 0.04798078752710374 0  0.9607107278835494 0.2834185756442621 0  1.731954290521287 0.2842886317693051 0  1.779077369991058 0.2291039503226278 0  0.6527022231295108 0.08569477788831682 0  0.6916151138468254 0 0  0.8438935925208596 0.2159584135336446 0  0.6689331958774321 0.3716842215281515 0  2.317206511801082 0.2150857089256538 0  0.6915000583673684 0.1646401469634124 0  0.6229518475759098 0.1637562961874416 0  0.5817033662356486 0.1258684224449203 0  0.6209583882721262 0.1847010880111589 0  2.5 0 0  0.6389246510848009 0.278450010052455 0  1.781967815577297 0.1551145542927359 0  0.6902890633484133 0.332151151267615 0  2.5 0.2049999999994743 0  2.5 0.3074999999997183 0  2.416929161926448 0.2327464213792422 0  0.6154136810599321 0.175174545882801 0  2.5 0.1024999999997612 0  0.6104992711520371 0.2118453231978703 0  2.5 0.41 0  1.909407874218324 0.3475920460897405 0  1.898307784123137 0.0640781879350478 0  0.6513011150928492 0.1835167781725089 0  0.6503345442188976 0.208122535960376 0  0.6603908909116775 0.196660215430242 0  0.7279457694224267 0.3237962213587685 0  0.6107068242365286 0.2205343762889329 0  2.058205329870775 0.41 0  1.957227977488067 0.41 0  1.976157046732302 0.3420030364334853 0  1.957227977487062 0 0  2.058205329869943 0 0  1.976157046732181 0.06799696356641864 0  0.6383613676644679 0.41 0  1.455141435660884 0.1456544069830235 0  0.9950305598379717 0.2553450661633512 0  1.728567729514045 0.1282404601140156 0  1.712479779067637 0.2028183087747138 0  0.6383613676634521 0 0  2.116985070695456 0.06169297422380063 0  2.162836591189951 0 0  0.7206274800156242 0.161583396443773 0  0.6537520553764576 0.1680442900620985 0  1.665417171861409 0.1438806335169778 0  2.443165304650843 0.1549388660538532 0  0.6065667631161428 0.2400998453881159 0  0.6048429996566183 0.2280441552220857 0  </DataArray>
</Points>
<Cells>
<DataArray  type="UInt32"  Name="connectivity"  format="ascii">0 1  0 2  0 3  0 210  0 222  1 2  1 17  1 177  1 178  1 209  1 210  1 231  2 3  2 17  2 18  2 47  3 18  3 179  3 180  3 222  3 232  4 5  4 6  4 190  4 230  5 6  5 19  5 92  6 19  6 190  6 215  6 226  7 8  7 9  7 73  7 74  7 136  7 154  7 168  8 9  8 74  8 96  8 124  8 194  9 136  9 194  9 234  10 11  10 12  10 13  10 29  10 85  10 86  10 211  11 12  11 29  11 30  11 31  11 147  12 13  12 87  12 88  12 147  12 218  13 86  13 218  14 15  14 16  14 45  14 46  14 105  14 146  15 16  15 29  15 31  15 46  15 216  15 252  16 29  16 45  16 48  16 211  17 47  17 101  17 231  17 240  18 47  18 102  18 232  18 243  19 79  19 92  19 93  19 215  20 21  20 22  20 43  20 60  20 119  20 157  21 22  21 55  21 59  21 60  21 111  21 116  22 55  22 157  22 158  23 24  23 25  23 76  23 220  24 25  24 76  24 79  24 81  24 131  24 215  25 131  25 220  25 228  25 255  26 27  26 28  26 67  26 68  26 213  27 28  27 41  27 68  27 128  27 129  27 208  27 246  28 41  28 123  28 165  28 213  29 31  29 211  30 31  30 147  30 151  30 217  30 253  31 169  31 216  31 253  32 33  32 34  32 142  32 183  33 34  33 163  33 205  34 114  34 115  34 132  34 142  34 163  34 167  35 36  35 37  35 170  35 204  36 37  36 143  36 184  37 143  37 170  37 187  37 254  38 39  38 40  38 78  38 173  39 40  39 75  39 78  39 108  39 109  39 130  40 44  40 125  40 130  40 173  40 206  41 54  41 57  41 123  41 208  42 43  42 44  42 113  42 153  42 157  42 203  43 44  43 119  43 125  43 157  44 125  44 130  44 153  45 48  45 103  45 105  45 176  45 212  46 65  46 146  46 252  47 101  47 102  47 127  48 85  48 176  48 211  49 50  49 51  49 83  49 91  50 51  50 91  50 134  50 144  50 171  50 221  51 82  51 83  51 221  52 53  52 54  52 75  52 78  53 54  53 56  53 57  54 57  54 75  54 108  54 208  55 116  55 158  55 186  55 245  56 57  56 58  56 182  57 58  57 77  57 123  58 77  58 155  58 172  58 182  59 60  59 111  59 117  59 205  60 117  60 119  61 62  61 63  61 110  61 121  61 204  62 63  62 110  62 158  62 245  63 121  63 122  63 156  63 158  64 65  64 66  64 67  64 94  64 160  64 165  64 213  65 66  65 94  65 146  65 196  65 252  66 159  66 160  66 166  66 196  67 68  67 69  67 94  67 162  67 197  67 213  68 69  68 128  69 98  69 99  69 128  69 195  69 197  70 71  70 72  70 100  70 174  71 72  71 89  71 90  71 100  71 112  71 126  72 112  72 113  72 133  72 174  72 207  73 74  73 82  73 148  73 154  73 256  74 82  74 124  74 221  75 78  75 108  76 81  76 251  77 123  77 165  77 172  79 80  79 81  79 93  79 127  79 215  80 81  80 102  80 127  80 250  81 250  81 251  82 83  82 84  82 148  82 221  83 84  84 148  85 86  85 175  85 176  85 189  85 211  86 175  87 88  87 218  88 147  88 181  89 90  89 99  89 126  89 128  89 195  90 112  90 128  90 129  90 161  90 191  91 134  91 199  91 200  92 93  92 149  92 238  93 101  93 127  93 149  94 146  94 162  95 96  95 97  95 166  95 169  95 196  95 216  95 252  96 97  96 124  96 145  96 159  96 166  96 194  97 169  97 194  97 235  98 99  98 138  98 162  98 192  98 197  98 201  99 106  99 107  99 126  99 192  99 195  100 107  100 126  101 127  101 149  101 238  101 240  102 127  102 242  102 243  102 250  103 104  103 105  103 212  104 105  104 138  104 201  105 138  105 146  105 162  106 107  106 192  106 201  107 126  108 109  108 208  108 246  109 129  109 130  109 161  109 246  110 170  110 185  110 204  110 245  111 114  111 116  111 163  111 205  112 113  112 191  113 133  113 153  113 191  113 203  114 115  114 116  114 163  114 186  115 132  115 186  115 187  116 186  117 118  117 119  118 119  118 173  118 206  119 125  119 206  120 121  120 122  120 174  120 207  121 122  122 133  122 156  122 203  122 207  123 165  124 144  124 145  124 221  125 206  128 129  128 195  129 161  129 246  130 153  130 161  131 215  131 226  131 255  132 167  132 187  132 248  132 254  133 203  133 207  134 171  134 200  134 214  134 244  135 136  135 137  135 168  135 229  136 137  136 150  136 152  136 168  136 234  137 150  137 219  138 162  138 201  139 140  139 141  139 155  139 182  140 141  140 214  140 244  141 155  141 214  141 223  141 236  142 167  142 178  142 183  142 209  143 180  143 184  143 247  143 254  144 145  144 171  144 193  144 221  144 223  145 159  145 193  145 202  146 162  147 181  147 217  148 256  149 238  150 151  150 152  150 219  151 152  151 217  151 219  151 227  151 233  151 253  152 233  152 234  152 235  153 161  153 191  154 168  154 237  154 256  154 257  155 164  155 172  155 182  155 236  156 157  156 158  156 203  157 158  157 203  158 245  159 160  159 166  159 202  160 164  160 165  160 202  161 191  162 197  163 205  164 165  164 172  164 202  164 236  165 172  165 213  166 196  167 209  167 248  168 229  168 237  169 216  169 233  169 235  169 253  170 185  170 187  170 204  171 214  171 223  173 206  174 207  175 188  175 189  176 189  176 212  176 249  177 178  177 183  177 231  177 239  178 183  178 209  179 180  179 184  179 232  179 241  180 184  180 222  180 247  181 217  181 227  185 186  185 187  185 245  186 187  186 245  187 254  188 189  188 249  189 249  190 225  190 226  190 230  192 201  193 202  193 223  193 236  194 234  194 235  196 252  198 199  198 200  198 244  199 200  200 244  202 236  208 246  209 210  209 248  210 222  210 248  212 249  214 223  214 244  215 226  216 252  217 227  219 227  220 228  222 247  222 248  223 236  224 225  224 226  224 228  224 255  225 226  225 230  226 255  228 255  229 237  231 239  231 240  232 241  232 243  233 235  233 253  234 235  237 257  238 239  238 240  239 240  241 242  241 243  242 243  242 250  242 251  247 248  247 254  248 254  250 251  256 257  </DataArray>
<DataArray  type="UInt32"  Name="offsets"  format="ascii">2 4 6 8 10 12 14 16 18 20 22 24 26 28 30 32 34 36 38 40 42 44 46 48 50 52 54 56 58 60 62 64 66 68 70 72 74 76 78 80 82 84 86 88 90 92 94 96 98 100 102 104 106 108 110 112 114 116 118 120 122 124 126 128 130 132 134 136 138 140 142 144 146 148 150 152 154 156 158 160 162 164 166 168 170 172 174 176 178 180 182 184 186 188 190 192 194 196 198 200 202 204 206 208 210 212 214 216 218 220 222 224 226 228 230 232 234 236 238 240 242 244 246 248 250 252 254 256 258 260 262 264 266 268 270 272 274 276 278 280 282 284 286 288 290 292 294 296 298 300 302 304 306 308 310 312 314 316 318 320 322 324 326 328 330 332 334 336 338 340 342 344 346 348 350 352 354 356 358 360 362 364 366 368 370 372 374 376 378 380 382 384 386 388 390 392 394 396 398 400 402 404 406 408 410 412 414 416 418 420 422 424 426 428 430 432 434 436 438 440 442 444 446 448 450 452 454 456 458 460 462 464 466 468 470 472 474 476 478 480 482 484 486 488 490 492 494 496 498 500 502 504 506 508 510 512 514 516 518 520 522 524 526 528 530 532 534 536 538 540 542 544 546 548 550 552 554 556 558 560 562 564 566 568 570 572 574 576 578 580 582 584 586 588 590 592 594 596 598 600 602 604 606 608 610 612 614 616 618 620 622 624 626 628 630 632 634 636 638 640 642 644 646 648 650 652 654 656 658 660 662 664 666 668 670 672 674 676 678 680 682 684 686 688 690 692 694 696 698 700 702 704 706 708 710 712 714 716 718 720 722 724 726 728 730 732 734 736 738 740 742 744 746 748 750 752 754 756 758 760 762 764 766 768 770 772 774 776 778 780 782 784 786 788 790 792 794 796 798 800 802 804 806 808 810 812 814 816 818 820 822 824 826 828 830 832 834 836 838 840 842 844 846 848 850 852 854 856 858 860 862 864 866 868 870 872 874 876 878 880 882 884 886 888 890 892 894 896 898 900 902 904 906 908 910 912 914 916 918 920 922 924 926 928 930 932 934 936 938 940 942 944 946 948 950 952 954 956 958 960 962 964 966 968 970 972 974 976 978 980 982 984 986 988 990 992 994 996 998 1000 1002 1004 1006 1008 1010 1012 1014 1016 1018 1020 1022 1024 1026 1028 1030 1032 1034 1036 1038 1040 1042 1044 1046 1048 1050 1052 1054 1056 1058 1060 1062 1064 1066 1068 1070 1072 1074 1076 1078 1080 1082 1084 1086 1088 1090 1092 1094 1096 1098 1100 1102 1104 1106 1108 1110 1112 1114 1116 1118 1120 1122 1124 1126 1128 1130 1132 1134 1136 1138 1140 1142 1144 1146 1148 1150 1152 1154 1156 1158 1160 1162 1164 1166 1168 1170 1172 1174 1176 1178 1180 1182 1184 1186 1188 1190 1192 1194 1196 1198 1200 1202 1204 1206 1208 1210 1212 1214 1216 1218 1220 1222 1224 1226 1228 1230 1232 1234 1236 1238 1240 1242 1244 1246 1248 1250 1252 1254 1256 1258 1260 1262 1264 1266 1268 1270 1272 1274 1276 1278 1280 1282 1284 1286 1288 1290 1292 1294 1296 1298 1300 1302 1304 1306 1308 1310 1312 1314 1316 1318 1320 1322 1324 1326 1328 1330 1332 1334 1336 1338 1340 1342 1344 1346 1348 1350 1352 1354 1356 1358 1360 1362 1364 1366 1368 1370 1372 1374 1376 1378 1380 1382 1384 1386 1388 1390 1392 1394 </DataArray>
<DataArray  type="UInt8"  Name="types"  format="ascii">3 3 3 3 3 3 3 3 3 3 3 3 3 3 3 3 3 3 3 3 3 3 3 3 3 3 3 3 3 3 3 3 3 3 3 3 3 3 3 3 3 3 3 3 3 3 3 3 3 3 3 3 3 3 3 3 3 3 3 3 3 3 3 3 3 3 3 3 3 3 3 3 3 3 3 3 3 3 3 3 3 3 3 3 3 3 3 3 3 3 3 3 3 3 3 3 3 3 3 3 3 3 3 3 3 3 3 3 3 3 3 3 3 3 3 3 3 3 3 3 3 3 3 3 3 3 3 3 3 3 3 3 3 3 3 3 3 3 3 3 3 3 3 3 3 3 3 3 3 3 3 3 3 3 3 3 3 3 3 3 3 3 3 3 3 3 3 3 3 3 3 3 3 3 3 3 3 3 3 3 3 3 3 3 3 3 3 3 3 3 3 3 3 3 3 3 3 3 3 3 3 3 3 3 3 3 3 3 3 3 3 3 3 3 3 3 3 3 3 3 3 3 3 3 3 3 3 3 3 3 3 3 3 3 3 3 3 3 3 3 3 3 3 3 3 3 3 3 3 3 3 3 3 3 3 3 3 3 3 3 3 3 3 3 3 3 3 3 3 3 3 3 3 3 3 3 3 3 3 3 3 3 3 3 3 3 3 3 3 3 3 3 3 3 3 3 3 3 3 3 3 3 3 3 3 3 3 3 3 3 3 3 3 3 3 3 3 3 3 3 3 3 3 3 3 3 3 3 3 3 3 3 3 3 3 3 3 3 3 3 3 3 3 3 3 3 3 3 3 3 3 3 3 3 3 3 3 3 3 3 3 3 3 3 3 3 3 3 3 3 3 3 3 3 3 3 3 3 3 3 3 3 3 3 3 3 3 3 3 3 3 3 3 3 3 3 3 3 3 3 3 3 3 3 3 3 3 3 3 3 3 3 3 3 3 3 3 3 3 3 3 3 3 3 3 3 3 3 3 3 3 3 3 3 3 3 3 3 3 3 3 3 3 3 3 3 3 3 3 3 3 3 3 3 3 3 3 3 3 3 3 3 3 3 3 3 3 3 3 3 3 3 3 3 3 3 3 3 3 3 3 3 3 3 3 3 3 3 3 3 3 3 3 3 3 3 3 3 3 3 3 3 3 3 3 3 3 3 3 3 3 3 3 3 3 3 3 3 3 3 3 3 3 3 3 3 3 3 3 3 3 3 3 3 3 3 3 3 3 3 3 3 3 3 3 3 3 3 3 3 3 3 3 3 3 3 3 3 3 3 3 3 3 3 3 3 3 3 3 3 3 3 3 3 3 3 3 3 3 3 3 3 3 3 3 3 3 3 3 3 3 3 3 3 3 3 3 3 3 3 3 3 3 3 3 3 3 3 3 3 3 3 3 3 3 3 3 3 3 3 3 3 3 3 3 3 3 3 3 3 3 3 3 3 3 3 3 3 3 3 3 3 3 3 3 3 3 3 3 3 3 3 3 3 3 3 3 3 3 3 3 3 3 3 3 3 3 3 3 3 3 3 3 3 3 3 3 3 3 3 3 3 3 3 3 3 3 3 3 3 3 3 3 3 3 3 3 </DataArray>
</Cells>
<CellData  Scalars="f">
<DataArray  type="Float64"  Name="f"  format="ascii">0 0 0 0 0 0 0 0 0 0 0 0 0 0 0 0 0 0 0 0 0 2 0 0 2 0 0 2 0 0 0 0 0 0 0 0 0 0 0 0 0 0 0 0 0 0 0 0 0 0 0 0 0 0 0 0 0 0 0 0 0 0 0 0 0 0 0 0 0 0 0 0 0 0 0 0 0 0 0 0 0 0 0 0 0 0 0 0 0 0 0 0 0 0 0 0 0 0 0 0 0 0 0 0 0 0 0 0 0 0 0 2 2 0 0 0 0 0 0 0 0 0 0 0 0 0 0 0 0 0 0 0 0 0 0 0 0 0 0 0 0 0 0 0 0 0 0 0 0 2 0 0 2 0 0 2 0 0 0 0 0 0 2 0 0 2 0 0 2 0 0 0 0 0 0 2 2 0 0 0 0 0 0 0 0 0 0 0 0 0 0 0 0 0 0 0 0 0 0 0 0 0 0 0 0 0 0 0 0 0 0 0 0 0 0 0 0 0 0 0 0 0 0 0 0 0 0 0 0 0 0 0 2 0 0 2 0 2 0 0 0 0 0 0 0 0 0 0 0 2 0 0 0 0 0 0 0 0 0 2 2 0 0 0 0 0 2 2 0 0 0 0 0 0 0 0 0 0 0 0 0 0 0 0 0 0 0 0 0 0 0 0 0 0 0 0 0 0 0 0 0 0 0 0 0 0 0 2 2 0 0 0 0 0 0 0 0 0 0 0 0 0 0 0 0 0 0 0 0 0 0 2 0 0 0 0 0 0 0 0 0 0 0 0 0 0 0 0 0 0 0 0 0 0 0 0 0 0 0 0 0 0 0 0 0 0 0 0 0 0 0 0 0 0 0 0 0 2 0 0 0 0 0 0 0 0 0 0 0 0 0 0 0 0 0 0 0 0 0 0 0 0 0 0 0 0 0 0 0 0 2 0 0 0 0 0 0 0 0 0 2 0 2 0 0 2 0 0 0 2 0 2 0 0 0 0 0 0 0 0 0 0 0 0 0 0 0 0 0 0 0 0 0 0 0 0 0 0 0 0 0 0 2 0 0 2 0 0 0 2 0 2 0 0 0 0 0 0 0 0 0 0 0 0 0 0 0 0 0 0 0 0 0 0 0 0 0 0 0 0 0 0 0 0 0 0 0 0 0 0 0 0 0 0 0 2 0 0 2 0 0 2 0 0 0 0 0 0 0 0 0 0 0 0 0 0 0 0 0 0 0 0 0 0 0 0 0 0 0 0 0 0 0 0 0 0 0 0 0 0 0 0 0 0 0 0 0 0 0 0 0 0 0 0 0 0 0 0 0 0 0 0 0 0 0 0 0 0 0 0 0 0 0 0 0 0 0 0 0 0 0 0 0 0 0 0 0 0 0 0 0 0 2 0 2 0 0 0 2 0 2 0 0 0 0 0 0 0 0 0 0 0 0 2 0 0 0 0 0 0 0 0 0 0 0 0 0 2 0 0 0 0 0 0 0 0 2 0 0 0 0 0 0 4 0 0 0 4 0 4 0 0 4 0 0 0 0 0 0 0 0 0 0 0 2 0 0 2 0 0 0 2 0 0 0 0 0 </DataArray>
</CellData>
</Piece>
</UnstructuredGrid>
</VTKFile>