<?xml version="1.0"?>
<VTKFile type="UnstructuredGrid"  version="0.1"  >
<UnstructuredGrid>
<Piece  NumberOfPoints="253" NumberOfCells="693">
<Points>
<DataArray  type="Float64"  NumberOfComponents="3"  format="ascii">0.3535460261755617 0.19 0  0.3528922713220932 0.2000185703532356 0  0.3590076176283495 0.196411355804271 0  0.3473758401723931 0.1961819304478349 0  0.3650630746574081 0.199866017807523 0  0.3722167817676917 0.2029084173136195 0  0.372246743208829 0.1959123236376545 0  0.3460777239384295 0.19 0  0.3087362127527544 0.19 0  0.3012679105156187 0.19 0  0.3066757059912147 0.1964092924317024 0  0.361014328412667 0.19 0  0.3647484795312433 0.1943028057712484 0  0.3274069683451451 0.2000000000000796 0  0.3347912413592433 0.1959225448935183 0  0.3274069683455914 0.1943028057712305 0  0.3127789816668748 0.1998657885438805 0  0.3199680582793816 0.1959123018030061 0  0.3124703638713219 0.1943028057712193 0  0.3417402379596385 0.1998691686391011 0  0.341834128962283 0.1943988119061815 0  0.3759509328869369 0.19 0  0.3684826306498175 0.19 0  0.3386094217012945 0.19 0  0.3311411194641595 0.19 0  0.3236728172270245 0.19 0  0.3162045149898895 0.19 0  0.3590471196690275 0.2036304442587945 0  0.3473758401724931 0.2038180695522752 0  0.3411792619035872 0.1007807988883264 0  0.3223547013037051 0.0811661342953541 0  0.3444094697767079 0.06991525711561337 0  0.2731077660562961 0.05508844879223635 0  0.2987388406956894 0.03154986994134981 0  0.2542757755299287 0.02753888901404131 0  0.3578728954606922 0.1299960675997348 0  0.3428550702839791 0.1207298864326248 0  0.3606088315611094 0.1037277084934985 0  0.3655464778159961 0.1466879707354811 0  0.3738358170836363 0.1565872175614931 0  0.383930166391577 0.149077512173999 0  0.1643783325218296 0.1320455275536215 0  0.1492552100538899 0.1320415135830948 0  0.1603037058708973 0.1432581839427922 0  0.2767628315692916 0.1210799475693868 0  0.260361447596534 0.1229759280558447 0  0.2739511166480145 0.1012903426171407 0  0.228090483983057 0.1360461642521307 0  0.2156274396954392 0.1428329882811742 0  0.2231096629876289 0.1473860403476538 0  0.3642910294882131 0.08514217524358583 0  0.1843109002236991 0.1108412192449581 0  0.1663792634974669 0.1129031590983526 0  0.1730791557496665 0.09449610930120438 0  0.1497148406801674 0.1059683048239758 0  0.1319376419904144 0.1078314072630599 0  0.1422873301607691 0.09099989767432708 0  0.3684404229859068 0.05879875930223131 0  0.3866266297147894 0.03466711669742863 0  0.3886771468199661 0.07134613381357163 0  0.2571393426600714 0.09909224058133874 0  0.3718691980658081 0.1185113859721947 0  0.2798983539554935 0.1725715317274126 0  0.2887875715604008 0.1784526411902859 0  0.2798265752054099 0.1801908109055989 0  0.3750556316230105 0.1339831864103567 0  0.235428184091502 0 0  0.2269089833956681 0.04173965335049001 0  0.2054867233040618 0.02496467843107029 0  0.1877417105387872 0.1515259415822739 0  0.1807733240461124 0.153844448527136 0  0.1810237202008071 0.1443964565620037 0  0.2981367854000865 0.1637235218245288 0  0.3103932646056649 0.1564266048246118 0  0.2950877208405285 0.1519675848591752 0  0.2473666618189879 0.1284124620716267 0  0.2591911171199197 0.1383198970354824 0  0.2490293115886795 0.1431700167801526 0  0.2607333124992295 0.173299215235651 0  0.2711961111491841 0.1784474567953763 0  0.2640363109795686 0.1820055736160818 0  0.1984955210867955 0.1136055788350874 0  0.1897964898761356 0.09526420071455169 0  0.2023158100364996 0.1500536585536553 0  0.194974551899914 0.1502531923497262 0  0.1988434545186226 0.1412267786066319 0  0.2517589812677475 0.167282708207138 0  0.2510789311637825 0.1750218956597876 0  0.139904094447954 0.0475963399258769 0  0.1148334976584671 0.02974143409366008 0  0.1520649328173654 0.02654404467430412 0  0.2718919859823887 0.1383852123087317 0  0.2166911463437691 0.1528682099456123 0  0.2096071079204251 0.1509316448471593 0  0.1709026911846327 0.1428229394764081 0  0.2741016576309132 0 0  0.3196154281700737 0.10148243027238 0  0.3418349201952718 0.1615259010424026 0  0.3538118084207602 0.155339561103512 0  0.3411001259021957 0.1498303228783227 0  0.1273239957535082 0 0  0.29753375939705 0.1013617902187171 0  0.3134318661301231 0.1190195115870869 0  0.2957425685352801 0.1395139256920557 0  0.294176374911891 0.1223585976984507 0  0.3100661524214186 0.1349017352953573 0  0.2166066364647865 0.1318674827965409 0  0.2211645858397942 0.1228171087145059 0  0.2599422691915476 0.1624889056516055 0  0.122631157988491 0.09257199523221718 0  0.3422976980851364 0.1814371791041619 0  0.2469965252529372 0.1829317073451959 0  0.2561841824184873 0.1804999140134954 0  0.1768496449561323 0.1335347700706724 0  0.2063021547212692 0.09746645431143124 0  0.2437828577465094 0.1110862473067074 0  0.2400332147834255 0.1700443375285386 0  0.2352133972704371 0.1645032867342007 0  0.2437579188981839 0.1628382198077666 0  0.350756438860385 0.03770412947703979 0  0.2788297821231576 0.08311242826819275 0  0.252515959816117 0.07648796931448625 0  0.30960746080092 0.166771572284543 0  0.2533462554466303 0.18564830088576 0  0.3556974926295285 0 0  0.2836036752964591 0.1339631263286828 0  0.2900654571599118 0.1851244352956092 0  0.2825971549227736 0.1858129330595456 0  0.2693200344911409 0.1703624615729042 0  0.2885139350435456 0.1684952536990488 0  0.3000697101066698 0.06520450816453537 0  0.3871533862426518 0.1004535961197204 0  0.1581391111780151 0.09342872668547121 0  0.1742197252835808 0.15715869474974 0  0.1682222986673531 0.1613971801805478 0  0.1666775543554036 0.1527311555964813 0  0.3238690756099825 0.05273873904001699 0  0.1417345422718611 0.1196357446143074 0  0.1800175691778405 0.1220029873035379 0  0.2439893735792749 0.1762316384219906 0  0.1900464160197788 0.1434391807715867 0  0.2340427519707383 0.12500661673201 0  0.1746666922495988 0.1499058539490714 0  0.2092567323014181 0.1231268265338988 0  0.2148660291046949 0.1110801690257468 0  0.2755531838498857 0.1520654843226777 0  0.2695935332846553 0.1606647427601511 0  0.2781997444103622 0.1631408916221692 0  0.3881774741414789 0.1375237980955535 0  0.1358421380985344 0.07184101253224438 0  0.1134537715612197 0.07678361544475715 0  0.09377624077125973 0 0  0.3038812691128678 0.0841994561932124 0  0.1970804225914977 0.07638822249409431 0  0.387533158164613 0.1229770158841918 0  0.3298647941762166 0.154951077946048 0  0.3304301052933576 0.1665413931712652 0  0.3024350031838242 0.1697562882658549 0  0.3527566348301668 0.1449455739485435 0  0.1692118283604925 0.1236341708275373 0  0.3342547353003448 0.176221364131867 0  0.3420590264647178 0.171174416987776 0  0.2372267379181886 0.156514666897516 0  0.2311198366185791 0.1437551092913072 0  0.1777108984146039 0.03960446592307849 0  0.1570548482231846 0.05573307794728176 0  0.1564186559410363 0.1212209553520046 0  0.2937996082784807 0.19 0  0.2973900081628705 0.1824599091601672 0  0.3987229542472677 0 0  0.2067838776803175 0.1442269954006475 0  0.2862543528039888 0.1579205993776223 0  0.2537568794636046 0.1534616887828778 0  0.2638326913414331 0.1507903208689992 0  0.23872107061991 0.1472714280426708 0  0.2448734012151204 0.1541363176121021 0  0.2296339016332438 0.1597280261969788 0  0.238348372815025 0.1368713418351483 0  0.2460399618407632 0.1705620587824227 0  0.2077074758137319 0.1359897507413737 0  0.1990707649929309 0.1296245621647927 0  0.3193133202755013 0.1460459073405674 0  0.3272191874237106 0.1310770977832356 0  0.3056626962672545 0.1462841663847227 0  0.2234150974217223 0.1558215752574715 0  0.2304119763419897 0.1515908441060641 0  0.3141745521465447 0 0  0.1595371636519827 0.07838695808624725 0  0.3125543224194783 0.1825714068210268 0  0.3272791508030818 0.1825813053721834 0  0.1222490905968041 0.0568943244623543 0  0.2416741650815652 0.0950846504064212 0  0.3647484950731696 0.1690362455853913 0  0.3534047339781095 0.1664079800909994 0  0.3646043070190422 0.1595814785132252 0  0.3573906953035386 0.1825704874733474 0  0.3721062650880237 0.1825704912629938 0  0.334769373574778 0.1838585991320073 0  0.2853857357028925 0.1110828225342078 0  0.3758459195692864 0.1665688727818971 0  0.3498118750569956 0.1834818329761723 0  0.2000506922905834 0.05138745584171936 0  0.1769147510702603 0.06290595158306629 0  0.1620856860351972 0 0  0.213756581476409 0.08311851351475982 0  0.2259637082614391 0.09968835807421736 0  0.1981052433264291 0 0  0.350235271979906 0.176105405901683 0  0.3198867512741007 0.1691875758392534 0  0.3199291472277772 0.1784487091275169 0  0.3133418865444516 0.1745347694704089 0  0.3264689647572548 0.1745410252268062 0  0.3871533862426517 0.1622083790690482 0  0.3198495352051576 0.1594009174606977 0  0.3792616967340072 0.1761054533295981 0  0.3796850840055151 0.1834818329761566 0  0.3245469487057487 0.02783302239578031 0  0.2312810177471911 0.08330382810563154 0  0.2178953059102855 0.06599367533480922 0  0.2565972207468325 0.1466368372771288 0  0.2846721669765922 0.1457902303354471 0  0.2280545270734199 0.114161215267224 0  0.3052148703289762 0.176135200920133 0  0.3050224637686886 0.1840003691157356 0  0.1874494447592934 0.1304389264391784 0  0.3647484799225001 0.1783360555704042 0  0.3580172190788822 0.1744509634985612 0  0.3714797435049115 0.1744509558619459 0  0.247794183473202 0.05155939024503531 0  0.2751288526856362 0.184558060069257 0  0.3871183818181629 0.1813492091082587 0  0.3870163828938027 0.1711802904735331 0  0.2507143478459989 0.1602321207261197 0  0.1851500288844805 0.1377443395869293 0  0.2968565228222139 0.1734776848403526 0  0.3316683313872936 0.1433924279692641 0  0.179425619413292 0.01748466926548749 0  0.3419037881374767 0.1376590441034941 0  0.1795103306938107 0.08060563341732667 0  0.3199315490584526 0.1848904494130124 0  0.2713947015670686 0.19 0  0.2639263993299336 0.19 0  0.2691876260717925 0.1848526873929683 0  0.1927059842241056 0.1364147326068345 0  0.3647484797606208 0.1848841839272463 0  0.2356079172485811 0.06536850945193971 0  0.1897996484266387 0.1213827416278163 0  0.2788630038042048 0.19 0  0.2863313060413428 0.19 0  0.2489897948556636 0.19 0  0.2564580970927985 0.19 0  0.260192248211366 0.1859506921392313 0  0.3296083350321284 0.1156006243865368 0  </DataArray>
</Points>
<Cells>
<DataArray  type="UInt32"  Name="connectivity"  format="ascii">0 1  0 2  0 3  0 7  0 11  0 195  0 200  1 2  1 3  1 27  1 28  2 4  2 11  2 12  2 27  3 7  3 19  3 20  3 28  4 5  4 6  4 12  4 27  5 6  6 12  6 21  6 22  7 20  7 23  7 110  7 200  8 9  8 10  8 18  8 26  8 188  8 223  9 10  9 167  9 168  9 223  10 16  10 18  11 12  11 22  11 195  11 244  12 22  13 14  13 15  13 17  14 15  14 19  14 20  14 23  14 24  15 17  15 24  15 25  16 17  16 18  17 18  17 25  17 26  18 26  19 20  19 28  20 23  21 22  21 196  21 215  22 196  22 244  23 24  23 110  23 197  24 25  24 189  24 197  25 26  25 189  25 239  26 188  26 239  29 30  29 31  29 36  29 37  29 50  29 96  29 252  30 31  30 96  30 130  30 136  30 152  31 50  31 57  31 119  31 136  32 33  32 34  32 120  32 121  32 130  32 228  33 34  33 95  33 130  33 136  33 186  33 216  34 66  34 67  34 95  34 228  35 36  35 37  35 38  35 61  35 65  35 158  35 237  36 37  36 182  36 237  36 252  37 50  37 61  37 131  38 39  38 40  38 65  38 98  38 158  38 194  39 40  39 194  39 199  39 212  40 65  40 148  40 212  41 42  41 43  41 94  41 113  41 159  41 166  42 43  42 137  42 166  43 94  43 135  44 45  44 46  44 91  44 104  44 125  44 198  45 46  45 60  45 75  45 76  45 91  45 115  46 60  46 101  46 120  46 198  47 48  47 49  47 106  47 107  47 141  47 163  47 177  48 49  48 92  48 93  48 106  48 170  48 179  49 92  49 163  49 184  49 185  50 57  50 59  50 131  51 52  51 53  51 81  51 82  51 138  51 246  52 53  52 54  52 132  52 138  52 159  52 166  53 82  53 132  53 187  53 238  54 55  54 56  54 132  54 137  54 166  55 56  55 109  55 137  56 109  56 132  56 149  56 187  57 58  57 59  57 119  58 59  58 119  58 124  58 169  59 131  60 115  60 120  60 121  60 191  61 65  61 131  61 154  62 63  62 64  62 79  62 128  62 129  62 147  63 64  63 126  63 127  63 129  63 168  63 234  64 79  64 127  64 229  65 148  65 154  66 67  66 68  66 95  66 206  67 68  67 201  67 218  67 228  67 245  68 164  68 201  68 206  68 236  69 70  69 71  69 84  69 140  70 71  70 133  70 142  71 94  71 113  71 140  71 142  71 233  72 73  72 74  72 122  72 129  72 157  72 171  72 234  73 74  73 122  73 181  73 183  73 213  74 103  74 171  74 183  74 220  75 76  75 77  75 115  75 141  75 177  76 77  76 91  76 173  76 219  77 172  77 174  77 175  77 177  77 219  78 79  78 80  78 86  78 87  78 108  78 112  78 128  79 80  79 128  79 229  79 242  80 112  80 241  80 242  80 251  81 82  81 114  81 143  81 144  81 180  81 246  82 114  82 153  82 238  83 84  83 85  83 93  83 170  84 85  84 140  85 140  85 170  85 179  85 180  85 243  86 87  86 108  86 118  86 178  86 232  87 111  87 112  87 139  87 178  88 89  88 90  88 149  88 165  88 190  89 90  89 100  89 151  89 190  90 100  90 164  90 165  90 203  90 236  91 125  91 145  91 173  91 220  92 93  92 184  93 170  94 113  94 135  94 142  95 186  96 101  96 102  96 152  96 252  97 98  97 99  97 155  97 156  97 161  97 193  98 99  98 158  98 193  98 194  99 155  99 158  99 235  99 237  100 151  100 203  101 102  101 104  101 120  101 152  101 198  102 104  102 105  102 182  102 252  103 104  103 105  103 125  103 183  103 220  104 105  104 125  104 198  105 181  105 182  105 183  106 107  106 143  106 179  107 141  107 143  107 144  107 221  108 128  108 146  108 172  108 173  108 232  109 149  109 150  110 160  110 161  110 197  110 200  110 207  111 112  111 123  111 139  111 249  112 123  112 251  113 138  113 159  113 224  113 233  114 144  114 153  114 204  114 205  115 141  115 191  115 205  115 221  116 117  116 118  116 139  116 178  117 118  117 162  117 176  118 162  118 175  118 178  118 232  119 124  119 136  119 216  120 121  120 130  120 152  121 191  121 217  121 228  121 245  122 157  122 208  122 210  122 213  122 222  123 249  123 250  123 251  124 169  124 186  124 216  125 220  126 127  126 167  126 168  126 248  127 229  127 247  127 248  128 146  128 147  129 147  129 171  129 234  130 136  130 152  131 154  132 187  133 134  133 135  133 142  134 135  135 142  136 216  137 166  138 159  138 224  138 246  139 178  140 233  140 243  141 177  141 221  143 144  143 179  143 180  144 205  144 221  145 146  145 147  145 171  145 173  145 220  146 147  146 173  147 171  148 154  149 150  149 165  149 187  149 190  150 190  153 201  153 202  153 204  153 218  153 238  155 156  155 181  155 213  155 235  156 160  156 161  156 208  156 211  156 213  157 222  157 234  158 237  159 166  160 161  160 189  160 197  160 211  161 193  161 207  162 174  162 175  162 176  162 185  163 174  163 177  163 185  164 165  164 201  164 202  164 236  165 187  165 202  167 168  167 248  168 222  168 223  168 234  170 179  171 220  172 173  172 175  172 219  172 232  173 219  174 175  174 177  174 185  175 232  176 184  176 185  179 180  180 224  180 243  180 246  181 182  181 183  181 213  181 235  182 235  182 237  182 252  184 185  186 216  187 202  187 238  188 209  188 210  188 222  188 223  188 239  189 197  189 209  189 211  189 239  191 205  191 217  192 193  192 194  192 199  192 225  192 226  192 227  193 194  193 207  193 226  194 199  195 200  195 207  195 225  195 226  195 244  196 214  196 215  196 225  196 227  196 244  199 212  199 214  199 227  199 231  200 207  201 202  201 218  202 238  203 206  203 236  204 205  204 217  204 218  205 217  205 221  206 236  207 226  208 209  208 210  208 211  208 213  209 210  209 211  209 239  210 222  212 231  214 215  214 227  214 230  214 231  215 230  217 218  217 245  218 245  222 223  222 234  224 233  224 243  224 246  225 226  225 227  225 244  228 245  229 240  229 242  229 247  230 231  233 243  235 237  240 241  240 242  240 247  241 242  241 250  241 251  247 248  249 250  250 251  </DataArray>
<DataArray  type="UInt32"  Name="offsets"  format="ascii">2 4 6 8 10 12 14 16 18 20 22 24 26 28 30 32 34 36 38 40 42 44 46 48 50 52 54 56 58 60 62 64 66 68 70 72 74 76 78 80 82 84 86 88 90 92 94 96 98 100 102 104 106 108 110 112 114 116 118 120 122 124 126 128 130 132 134 136 138 140 142 144 146 148 150 152 154 156 158 160 162 164 166 168 170 172 174 176 178 180 182 184 186 188 190 192 194 196 198 200 202 204 206 208 210 212 214 216 218 220 222 224 226 228 230 232 234 236 238 240 242 244 246 248 250 252 254 256 258 260 262 264 266 268 270 272 274 276 278 280 282 284 286 288 290 292 294 296 298 300 302 304 306 308 310 312 314 316 318 320 322 324 326 328 330 332 334 336 338 340 342 344 346 348 350 352 354 356 358 360 362 364 366 368 370 372 374 376 378 380 382 384 386 388 390 392 394 396 398 400 402 404 406 408 410 412 414 416 418 420 422 424 426 428 430 432 434 436 438 440 442 444 446 448 450 452 454 456 458 460 462 464 466 468 470 472 474 476 478 480 482 484 486 488 490 492 494 496 498 500 502 504 506 508 510 512 514 516 518 520 522 524 526 528 530 532 534 536 538 540 542 544 546 548 550 552 554 556 558 560 562 564 566 568 570 572 574 576 578 580 582 584 586 588 590 592 594 596 598 600 602 604 606 608 610 612 614 616 618 620 622 624 626 628 630 632 634 636 638 640 642 644 646 648 650 652 654 656 658 660 662 664 666 668 670 672 674 676 678 680 682 684 686 688 690 692 694 696 698 700 702 704 706 708 710 712 714 716 718 720 722 724 726 728 730 732 734 736 738 740 742 744 746 748 750 752 754 756 758 760 762 764 766 768 770 772 774 776 778 780 782 784 786 788 790 792 794 796 798 800 802 804 806 808 810 812 814 816 818 820 822 824 826 828 830 832 834 836 838 840 842 844 846 848 850 852 854 856 858 860 862 864 866 868 870 872 874 876 878 880 882 884 886 888 890 892 894 896 898 900 902 904 906 908 910 912 914 916 918 920 922 924 926 928 930 932 934 936 938 940 942 944 946 948 950 952 954 956 958 960 962 964 966 968 970 972 974 976 978 980 982 984 986 988 990 992 994 996 998 1000 1002 1004 1006 1008 1010 1012 1014 1016 1018 1020 1022 1024 1026 1028 1030 1032 1034 1036 1038 1040 1042 1044 1046 1048 1050 1052 1054 1056 1058 1060 1062 1064 1066 1068 1070 1072 1074 1076 1078 1080 1082 1084 1086 1088 1090 1092 1094 1096 1098 1100 1102 1104 1106 1108 1110 1112 1114 1116 1118 1120 1122 1124 1126 1128 1130 1132 1134 1136 1138 1140 1142 1144 1146 1148 1150 1152 1154 1156 1158 1160 1162 1164 1166 1168 1170 1172 1174 1176 1178 1180 1182 1184 1186 1188 1190 1192 1194 1196 1198 1200 1202 1204 1206 1208 1210 1212 1214 1216 1218 1220 1222 1224 1226 1228 1230 1232 1234 1236 1238 1240 1242 1244 1246 1248 1250 1252 1254 1256 1258 1260 1262 1264 1266 1268 1270 1272 1274 1276 1278 1280 1282 1284 1286 1288 1290 1292 1294 1296 1298 1300 1302 1304 1306 1308 1310 1312 1314 1316 1318 1320 1322 1324 1326 1328 1330 1332 1334 1336 1338 1340 1342 1344 1346 1348 1350 1352 1354 1356 1358 1360 1362 1364 1366 1368 1370 1372 1374 1376 1378 1380 1382 1384 1386 </DataArray>
<DataArray  type="UInt8"  Name="types"  format="ascii">3 3 3 3 3 3 3 3 3 3 3 3 3 3 3 3 3 3 3 3 3 3 3 3 3 3 3 3 3 3 3 3 3 3 3 3 3 3 3 3 3 3 3 3 3 3 3 3 3 3 3 3 3 3 3 3 3 3 3 3 3 3 3 3 3 3 3 3 3 3 3 3 3 3 3 3 3 3 3 3 3 3 3 3 3 3 3 3 3 3 3 3 3 3 3 3 3 3 3 3 3 3 3 3 3 3 3 3 3 3 3 3 3 3 3 3 3 3 3 3 3 3 3 3 3 3 3 3 3 3 3 3 3 3 3 3 3 3 3 3 3 3 3 3 3 3 3 3 3 3 3 3 3 3 3 3 3 3 3 3 3 3 3 3 3 3 3 3 3 3 3 3 3 3 3 3 3 3 3 3 3 3 3 3 3 3 3 3 3 3 3 3 3 3 3 3 3 3 3 3 3 3 3 3 3 3 3 3 3 3 3 3 3 3 3 3 3 3 3 3 3 3 3 3 3 3 3 3 3 3 3 3 3 3 3 3 3 3 3 3 3 3 3 3 3 3 3 3 3 3 3 3 3 3 3 3 3 3 3 3 3 3 3 3 3 3 3 3 3 3 3 3 3 3 3 3 3 3 3 3 3 3 3 3 3 3 3 3 3 3 3 3 3 3 3 3 3 3 3 3 3 3 3 3 3 3 3 3 3 3 3 3 3 3 3 3 3 3 3 3 3 3 3 3 3 3 3 3 3 3 3 3 3 3 3 3 3 3 3 3 3 3 3 3 3 3 3 3 3 3 3 3 3 3 3 3 3 3 3 3 3 3 3 3 3 3 3 3 3 3 3 3 3 3 3 3 3 3 3 3 3 3 3 3 3 3 3 3 3 3 3 3 3 3 3 3 3 3 3 3 3 3 3 3 3 3 3 3 3 3 3 3 3 3 3 3 3 3 3 3 3 3 3 3 3 3 3 3 3 3 3 3 3 3 3 3 3 3 3 3 3 3 3 3 3 3 3 3 3 3 3 3 3 3 3 3 3 3 3 3 3 3 3 3 3 3 3 3 3 3 3 3 3 3 3 3 3 3 3 3 3 3 3 3 3 3 3 3 3 3 3 3 3 3 3 3 3 3 3 3 3 3 3 3 3 3 3 3 3 3 3 3 3 3 3 3 3 3 3 3 3 3 3 3 3 3 3 3 3 3 3 3 3 3 3 3 3 3 3 3 3 3 3 3 3 3 3 3 3 3 3 3 3 3 3 3 3 3 3 3 3 3 3 3 3 3 3 3 3 3 3 3 3 3 3 3 3 3 3 3 3 3 3 3 3 3 3 3 3 3 3 3 3 3 3 3 3 3 3 3 3 3 3 3 3 3 3 3 3 3 3 3 3 3 3 3 3 3 3 3 3 3 3 3 3 3 3 3 3 3 3 3 3 3 3 3 3 3 3 3 3 3 3 3 3 3 3 3 3 3 3 3 3 3 3 3 3 3 3 3 3 3 3 3 3 3 3 3 3 3 3 3 3 3 3 3 3 3 3 3 3 3 3 3 3 3 3 3 3 3 3 3 3 </DataArray>
</Cells>
<CellData  Scalars="f">
<DataArray  type="Float64"  Name="f"  format="ascii">0 0 0 5 5 0 0 0 0 0 0 0 0 0 0 0 0 0 0 0 0 0 0 0 0 0 0 0 5 0 0 5 0 0 5 0 0 0 5 0 0 0 0 0 5 0 0 0 0 0 0 0 0 0 0 0 0 0 0 0 0 0 0 0 0 0 0 0 5 0 0 0 0 5 0 0 5 0 0 5 0 0 0 0 0 0 0 0 0 0 0 0 0 0 0 0 0 0 0 0 0 0 0 0 0 0 0 0 0 0 0 0 0 0 0 0 0 0 0 0 0 0 0 0 0 0 0 0 0 0 0 0 0 0 0 0 0 0 0 0 0 0 0 0 0 0 0 0 0 0 0 0 0 0 0 0 0 0 0 0 0 0 0 0 0 0 0 0 0 0 0 0 0 0 0 0 0 0 0 0 0 0 0 0 0 0 0 0 0 0 0 0 0 0 0 0 0 0 0 0 0 0 0 0 0 0 0 0 0 0 0 0 0 0 0 0 0 0 0 0 0 0 0 0 0 0 0 0 0 0 0 0 0 0 0 0 0 0 0 0 0 0 0 0 0 0 0 0 0 0 0 0 2 2 0 0 0 0 0 0 0 0 0 6 0 6 0 0 6 0 0 0 0 0 0 0 0 0 0 0 0 0 0 0 0 0 0 0 0 0 0 0 0 0 0 0 0 0 0 0 0 0 0 0 0 0 0 0 0 0 0 0 0 0 0 0 0 0 0 0 0 0 0 0 0 0 0 0 0 6 0 6 0 0 0 0 0 0 0 0 0 0 0 0 0 0 0 0 0 0 0 0 0 0 0 0 0 0 0 0 0 0 0 0 0 0 0 6 6 0 0 0 0 2 0 0 0 0 0 0 0 0 0 0 0 0 0 0 0 0 0 0 2 2 0 0 0 0 0 0 0 0 0 0 0 0 0 0 0 0 0 0 0 0 0 0 0 0 0 0 0 0 0 0 0 0 0 0 0 0 0 0 0 0 0 6 6 0 0 0 0 0 0 0 0 0 0 0 0 0 0 6 0 6 0 0 0 6 0 0 0 0 0 0 0 0 0 0 0 0 0 0 0 0 0 0 0 0 0 0 2 2 0 0 0 0 0 0 0 0 0 0 0 0 0 0 0 0 0 0 6 0 0 0 0 0 0 0 0 0 0 0 0 0 0 0 0 0 0 0 0 0 0 0 0 0 0 0 0 0 0 0 0 0 0 0 0 0 0 0 0 0 0 0 0 0 0 0 0 0 0 0 0 0 0 0 0 0 0 0 0 0 0 0 0 0 0 0 0 0 0 0 5 0 0 0 0 0 0 0 0 0 0 0 0 0 0 6 0 0 0 0 0 0 0 0 0 0 0 0 0 0 0 0 0 0 0 0 0 0 0 0 0 0 0 0 0 0 0 0 0 0 0 0 0 0 0 0 0 0 0 0 0 0 0 0 0 0 0 0 0 0 0 2 0 0 0 0 0 0 0 0 0 0 0 0 0 0 0 0 0 0 0 0 0 0 0 0 0 0 0 0 0 0 0 0 0 0 0 0 0 0 0 0 5 0 5 0 5 0 5 5 0 </DataArray>
</CellData>
</Piece>
</UnstructuredGrid>
</VTKFile>