<?xml version="1.0"?>
<VTKFile type="UnstructuredGrid"  version="0.1"  >
<UnstructuredGrid>
<Piece  NumberOfPoints="254" NumberOfCells="699">
<Points>
<DataArray  type="Float64"  NumberOfComponents="3"  format="ascii">0.3012679105156187 0.19 0  0.3006558810093873 0.1999966199048318 0  0.3066757059912147 0.1964092924317024 0  0.2950977245127906 0.1961819304477774 0  0.3535460261749672 0.21 0  0.3528922713220932 0.2000185703532356 0  0.3473758401724931 0.2038180695522752 0  0.301267910515333 0.21 0  0.2950977245128307 0.2038180695522663 0  0.3590471196690275 0.2036304442587945 0  0.3067669986803285 0.203627750582736 0  0.2607803159922026 0.2000727136295815 0  0.2677053789419034 0.1964246479135325 0  0.267698176732111 0.2039977513680092 0  0.2751288526855082 0.20000000000002 0  0.2603913042767976 0.1945999920783741 0  0.2639263993299336 0.19 0  0.25 0.2 0  0.2497468076502589 0.2050254481002335 0  0.2550657455369551 0.2034088125358657 0  0.3274069683451451 0.2000000000000796 0  0.3348752705822316 0.202908417313609 0  0.3347912413592433 0.1959225448935183 0  0.3127789816668748 0.1998657885438805 0  0.3199386661080599 0.202908417313604 0  0.3199680582793816 0.1959123018030061 0  0.2825131256993216 0.2035478995978015 0  0.2825051229162361 0.1959834479681729 0  0.2894621222999649 0.1998691686390484 0  0.3417402379596385 0.1998691686391011 0  0.2713947015670686 0.19 0  0.2788630038040554 0.21 0  0.2863313060411479 0.21 0  0.3162045149895234 0.21 0  0.3236728172265972 0.21 0  0.3684826306491596 0.21 0  0.3759509328862226 0.21 0  0.3722167817676917 0.2029084173136195 0  0.3311411194636928 0.21 0  0.3386094217007701 0.21 0  0.2937996082784807 0.19 0  0.2937996082782405 0.21 0  0.3460777239378666 0.21 0  0.2601812407614425 0.2056861609747042 0  0.2497468076502614 0.1949745518997913 0  0.2548908499171161 0.1966940311614271 0  0.2751288526855081 0.205697194228819 0  0.2751288526856362 0.1943028057711959 0  0.3610143284120516 0.21 0  0.3087362127524279 0.21 0  0.2895549462647731 0.1944069323160756 0  0.3650260178642469 0.2054197153269502 0  0.3650630746574081 0.199866017807523 0  0.3274069683451451 0.2056971942288527 0  0.312746837849954 0.2054193256016435 0  0.2564580970927985 0.19 0  0.2525889069107169 0.1926036384190297 0  0.341845332858566 0.2054104280253135 0  0.2897864851748124 0.2055930218738881 0  0.25645809709277 0.21 0  0.25261805618068 0.2074135021971937 0  0.2639263993298655 0.21 0  0.271394701566961 0.21 0  0.2863313060413428 0.19 0  0.2788630038042048 0.19 0  0.2489897948556636 0.19 0  0.2489897948556636 0.21 0  0.3605639237643 0.2793006923612668 0  0.3754967205959606 0.2925860795314694 0  0.3727949441736886 0.2687069143756727 0  0.3265012756581966 0.2702065959162994 0  0.3425185051143286 0.277559411241074 0  0.3236350239119228 0.2946877384927431 0  0.3871536388992142 0.2768042805511501 0  0.2286913662688903 0.3133959500822503 0  0.2457579136251883 0.3036253283210157 0  0.2370120387482942 0.3305347050441392 0  0.3009672322348927 0.299853464475565 0  0.2860802002973516 0.3223921533999551 0  0.2799076752212695 0.2955946972235118 0  0.2004289920815778 0.2885787263743592 0  0.2083656065158181 0.2774025780460683 0  0.2175887234644184 0.2860477873464338 0  0.3656958473839882 0.2539056765427533 0  0.3826544750917113 0.2574975795502557 0  0.3742999258550256 0.2455889756585279 0  0.1987596795720009 0.2706417532988148 0  0.1949745518995776 0.2497468076502398 0  0.202315810036185 0.2499463414463592 0  0.1988936168129591 0.2591743361304991 0  0.3119706532029335 0.280741853274607 0  0.29813678539982 0.236276478175315 0  0.3103932646053297 0.2435733951751842 0  0.2950877208402625 0.2480324151406079 0  0.2802365149396702 0.2293267412254819 0  0.2888197773682229 0.2217624015035644 0  0.2799011483571476 0.2201540359780956 0  0.4421897352483806 0.3061937447056332 0  0.418091171977014 0.3243162836372635 0  0.412607471649106 0.2990503898016255 0  0.2328041563607919 0.2914013345123573 0  0.2145757352600842 0.3012314566270872 0  0.2199699516855607 0.2730509421907208 0  0.2088779690661671 0.2650057074514391 0  0.2335552553807713 0.3548019770067952 0  0.216380800632318 0.3798697230577418 0  0.2537725505472335 0.3777585525832137 0  0.3141745521466497 0.41 0  0.3098481778850767 0.3708824362367037 0  0.2803555148413351 0.3762695151888899 0  0.3830052789765099 0.2465504596596307 0  0.3938502830802056 0.3095497484347601 0  0.3641563190507836 0.3179653487982807 0  0.3934922780344484 0.3350540779420794 0  0.3236197880522565 0.342390365483443 0  0.3436434970543172 0.3743236175823911 0  0.2607466101664424 0.2266930975791233 0  0.271385042995999 0.2220255791858506 0  0.2640363109795177 0.2179944263838653 0  0.3418128473615318 0.2384788409515084 0  0.353800124058392 0.2447246903927239 0  0.3411309613953146 0.2501451311933366 0  0.2544808243315743 0.2458504951732927 0  0.2658768459325225 0.2418747601129979 0  0.2588244756332078 0.23611127323402 0  0.2516468834717856 0.2324930308055588 0  0.2510679533716966 0.2249523323210773 0  0.2433956710264305 0.2381734167068584 0  0.2460613805257083 0.2485222416480207 0  0.2507569858396673 0.2399489856244889 0  0.2548303845886413 0.3306565522725438 0  0.2941337443604631 0.2779157781414069 0  0.2609061472235815 0.2623077995666049 0  0.250265698216607 0.2591459325753045 0  0.2578547799253117 0.2736699879086193 0  0.2627897304119148 0.25271037528669 0  0.2397046897252064 0.2463916348380001 0  0.2460936211071839 0.2733779098999782 0  0.3249956812055901 0.3123726632318911 0  0.2693249379754523 0.232253714048252 0  0.2747137483983895 0.3519826740290966 0  0.2673795049878581 0.3181867883572329 0  0.3425309117203542 0.2940518961451331 0  0.3511864556906398 0.3079593845701901 0  0.2403498351518432 0.2646826079825986 0  0.2595321800985562 0.2853145787115269 0  0.245890675076073 0.2871394349824882 0  0.2199894283484474 0.2630314844485698 0  0.2959355069777989 0.2600507343559471 0  0.3100661524210835 0.2650982647042849 0  0.2632645194651774 0.3015808908677137 0  0.2741016576310038 0.41 0  0.2813918607378073 0.2642650598195126 0  0.2764818109814328 0.2785134123591192 0  0.3422532254316368 0.2186305831010365 0  0.3096074608005889 0.2332284277153185 0  0.246996525252926 0.2170682926548348 0  0.2561841824185058 0.2195000859865352 0  0.2854688561834498 0.2412236914981949 0  0.2752342263051384 0.2394149830158712 0  0.2897734241776366 0.2309782844302881 0  0.3419145640611154 0.3257454339814842 0  0.34764135913642 0.3491933721956422 0  0.398571556794488 0.2667712515333163 0  0.398267784857306 0.2897726550924405 0  0.3054340412842468 0.3221719107153626 0  0.2352133972703547 0.2354967132658811 0  0.2400332147833751 0.2299556624715287 0  0.2898993665208313 0.2148884498665536 0  0.2825971549226016 0.2141870669404288 0  0.2533462554466219 0.2143516991142523 0  0.2234150974215506 0.2441784247426195 0  0.2296339016331197 0.2402719738031125 0  0.2306200006656481 0.2483744735801409 0  0.3556974926297398 0.41 0  0.2096071079201568 0.2490683551528932 0  0.2166911463435495 0.2471317900544655 0  0.2155707468285289 0.2556953171569842 0  0.2354281840915826 0.41 0  0.4192410422903348 0.3546402176185522 0  0.4444416418673275 0.3371826323410143 0  0.4460062899873121 0.3720706817615101 0  0.2370670604668411 0.2561437100875122 0  0.3342575907952841 0.223845352414335 0  0.330395134354505 0.2334931151381134 0  0.3420126050355882 0.2289014753216907 0  0.3527566348295874 0.2550544260512217 0  0.3422261770849799 0.2620435439696853 0  0.3570962000964671 0.2658531600023138 0  0.2439893735792577 0.2237683615780412 0  0.2069640661720074 0.2559705483641431 0  0.3298536818655586 0.2450564271365737 0  0.3717783033973493 0.3492929215517201 0  0.299175979503955 0.3443721019725888 0  0.3024586873317863 0.2302383467013988 0  0.1985922711404066 0.3216774874340058 0  0.217902467256 0.3335522763450835 0  0.1917080515020064 0.3413476842478615 0  0.2254320944728471 0.256276132616746 0  0.319313320275104 0.2539540926591672 0  0.2751288526855082 0.2504894696471402 0  0.3056884213926414 0.2536577882881167 0  0.2973772572263381 0.2175617982546508 0  0.3647216780759439 0.2309636620771321 0  0.3532661195270175 0.2336617303183129 0  0.3647485037428231 0.2414648470797462 0  0.2122294664542327 0.3536582770139244 0  0.2000381356635816 0.3047271648646204 0  0.2460399618407353 0.2294379412176375 0  0.3766159229561977 0.3830577447225878 0  0.4149595575946646 0.3834673183778856 0  0.3949496524092438 0.3601144457090416 0  0.3765649579409498 0.2346032306023708 0  0.2294756118369428 0.2628646849955408 0  0.235672688557912 0.2416805760911849 0  0.3125541355310679 0.2174284626835578 0  0.3272784643395017 0.2174232629457372 0  0.3348752705822316 0.2165201420472217 0  0.3572801772935104 0.2173273935815939 0  0.3497998287380586 0.2162289176852799 0  0.3722102571583817 0.2173806806735415 0  0.2220625618530342 0.2502300158941232 0  0.319877191385679 0.2308174713545124 0  0.3199271849027431 0.2215499206710377 0  0.3133403253306649 0.2254657033957812 0  0.1957380535525476 0.3607047222935699 0  0.3198433526340244 0.2406043114931417 0  0.1981052433265003 0.41 0  0.2520678298491301 0.3496835930425019 0  0.3264603545297456 0.2254677777931837 0  0.3498118750564168 0.2244634883974543 0  0.2337109879526324 0.2717726746338737 0  0.3933451459320382 0.2499378971246431 0  0.3582214469498746 0.2931659544846034 0  0.267810768800799 0.2705998356288453 0  0.357905755861004 0.2256377483552234 0  0.3052148703286661 0.2238647990797835 0  0.3050207387251377 0.2160025078068285 0  0.2863686241214745 0.2524447136573785 0  0.364747590224077 0.2216658739063822 0  0.3716385577875085 0.2254972730720332 0  0.2754241708482248 0.2153487639899751 0  0.3312445077953667 0.2576480961126658 0  0.2129990509249649 0.3158541689725088 0  0.2703064389008618 0.2603298038584663 0  0.2969986277115119 0.2264901249637967 0  0.3987229542475914 0.41 0  0.3199311709679444 0.2151099596031206 0  0.2692521927396536 0.2151979606124073 0  0.3647474910084925 0.215095947068514 0  0.4433053055145528 0.41 0  0.2282286223197668 0.2809381514776019 0  0.2601922482113177 0.2140493078607503 0  0.2375747325401397 0.2803566777819222 0  </DataArray>
</Points>
<Cells>
<DataArray  type="UInt32"  Name="connectivity"  format="ascii">0 1  0 2  0 3  0 40  1 2  1 3  1 7  1 8  1 10  2 10  2 23  3 8  3 28  3 40  3 50  4 5  4 6  4 9  4 42  4 48  4 218  4 219  5 6  5 9  6 29  6 42  6 57  7 8  7 10  7 41  7 49  7 202  7 237  8 28  8 41  8 58  9 48  9 51  9 52  10 23  10 49  10 54  11 12  11 13  11 15  11 19  11 43  11 45  12 13  12 14  12 15  12 16  12 30  12 47  13 14  13 43  13 46  13 61  13 62  14 26  14 27  14 46  14 47  15 16  15 45  15 55  16 30  16 55  17 18  17 19  17 44  17 45  18 19  18 60  18 66  19 43  19 45  19 59  19 60  20 21  20 22  20 24  20 25  20 53  21 22  21 29  21 38  21 39  21 53  21 57  22 29  23 24  23 25  23 54  24 25  24 33  24 34  24 53  24 54  26 27  26 28  26 31  26 32  26 46  26 58  27 28  27 47  27 50  27 63  27 64  28 50  28 58  29 57  30 47  30 64  31 32  31 46  31 62  31 169  31 241  32 41  32 58  32 168  32 169  33 34  33 49  33 54  33 215  33 247  34 38  34 53  34 216  34 247  35 36  35 37  35 48  35 51  35 220  35 249  36 37  36 220  37 51  37 52  38 39  38 53  38 216  38 217  39 42  39 57  39 154  39 217  40 50  40 63  41 58  41 168  41 202  42 57  42 154  42 219  43 59  43 61  44 45  44 56  44 65  45 55  45 56  46 62  47 64  48 51  48 218  48 249  49 54  49 215  49 237  50 63  51 52  55 56  55 65  56 65  59 60  59 61  59 66  59 170  59 252  60 66  61 62  61 118  61 248  61 252  62 241  62 248  63 64  66 156  66 170  67 68  67 69  67 71  67 188  67 233  68 69  68 73  68 111  68 112  68 164  68 233  69 73  69 83  69 84  69 188  70 71  70 72  70 90  70 149  70 187  70 199  70 242  71 72  71 142  71 187  71 188  71 233  72 77  72 90  72 138  72 142  73 84  73 163  73 164  74 75  74 76  74 100  74 101  74 196  74 243  75 76  75 100  75 130  75 141  75 145  75 146  75 150  76 104  76 130  76 196  76 228  77 78  77 79  77 90  77 131  77 138  77 165  78 79  78 140  78 141  78 165  78 193  79 131  79 141  79 145  79 150  79 153  80 81  80 82  80 86  80 101  80 207  81 82  81 86  81 102  81 103  82 100  82 101  82 102  82 251  83 84  83 85  83 120  83 186  83 188  83 205  84 85  84 110  84 163  84 232  85 110  85 205  85 212  86 89  86 103  87 88  87 89  88 89  88 175  88 190  89 103  89 190  90 131  90 149  91 92  91 93  91 155  91 158  91 160  91 194  91 245  92 93  92 155  92 199  92 201  92 226  93 148  93 158  93 201  93 238  94 95  94 96  94 117  94 139  94 158  94 159  94 160  95 96  95 160  95 168  95 169  95 202  95 245  96 117  96 169  96 241  97 98  97 99  97 180  98 99  98 111  98 113  98 179  98 180  99 111  99 164  100 101  100 146  100 251  100 253  101 207  101 243  102 103  102 147  102 213  102 231  102 251  103 147  103 177  103 190  104 105  104 106  104 196  104 206  104 228  105 106  105 178  105 206  105 225  105 227  106 109  106 140  106 151  106 178  106 228  107 108  107 109  107 115  107 151  107 174  108 109  108 114  108 115  108 193  109 140  109 151  109 193  110 212  110 232  111 112  111 113  111 164  112 113  112 143  112 161  112 162  112 192  112 233  113 179  113 192  113 211  114 115  114 138  114 161  114 162  114 165  114 193  115 162  115 174  115 192  115 209  116 117  116 118  116 124  116 125  116 126  116 139  116 157  117 118  117 139  117 241  117 248  118 157  118 248  118 252  119 120  119 121  119 184  119 185  119 191  119 204  120 121  120 186  120 204  120 205  121 186  121 187  121 191  121 242  122 123  122 124  122 128  122 129  122 133  122 135  123 124  123 135  123 139  123 159  123 200  124 125  124 129  124 139  125 126  125 127  125 129  125 208  126 156  126 157  126 189  126 208  127 128  127 129  127 136  127 166  127 167  127 208  127 214  128 129  128 133  128 136  128 182  130 140  130 141  130 228  131 148  131 149  131 152  131 153  132 133  132 134  132 135  132 234  132 244  133 134  133 135  133 137  133 144  133 182  134 137  134 145  134 146  134 234  135 200  135 244  136 173  136 182  136 214  137 144  137 146  137 231  137 253  138 142  138 143  138 161  138 165  139 159  140 141  140 193  140 228  141 150  142 143  142 233  143 161  143 233  144 182  144 213  144 231  145 146  145 150  145 153  145 234  146 253  147 177  147 198  147 213  148 149  148 152  148 201  148 238  149 199  149 201  151 178  152 153  152 200  152 234  152 238  152 244  153 234  154 183  154 185  154 217  154 219  154 230  155 194  155 222  155 224  155 226  155 236  156 157  156 170  156 189  157 170  157 252  158 159  158 160  158 200  158 238  159 200  160 245  161 162  162 192  163 164  163 232  165 193  166 167  166 172  166 214  167 189  167 208  168 169  168 202  169 241  170 252  171 172  171 173  171 176  171 221  172 173  172 214  173 182  173 198  173 214  173 221  174 209  174 246  175 176  175 177  175 190  176 177  176 221  177 190  177 198  177 221  178 227  179 180  179 181  179 210  179 211  180 181  181 210  181 250  182 198  182 213  183 184  183 185  183 216  183 217  183 229  184 185  184 191  184 222  184 226  184 229  185 204  185 230  186 187  186 188  187 188  187 242  189 208  191 199  191 226  191 242  192 209  192 211  194 236  194 245  195 196  195 197  195 207  195 243  196 197  196 206  196 243  197 206  197 225  198 213  198 221  199 201  199 226  199 242  200 238  200 244  202 236  202 237  202 245  203 204  203 205  203 212  203 235  203 239  203 240  204 205  204 230  204 235  205 212  206 225  207 243  209 210  209 211  209 246  210 211  210 246  210 250  212 240  213 231  215 223  215 224  215 236  215 237  215 247  216 217  216 223  216 229  216 247  218 219  218 230  218 235  218 239  218 249  219 230  220 239  220 240  220 249  222 223  222 224  222 226  222 229  223 224  223 229  223 247  224 236  230 235  231 251  231 253  234 244  235 239  236 237  236 245  239 240  239 249  241 248  246 250  251 253  </DataArray>
<DataArray  type="UInt32"  Name="offsets"  format="ascii">2 4 6 8 10 12 14 16 18 20 22 24 26 28 30 32 34 36 38 40 42 44 46 48 50 52 54 56 58 60 62 64 66 68 70 72 74 76 78 80 82 84 86 88 90 92 94 96 98 100 102 104 106 108 110 112 114 116 118 120 122 124 126 128 130 132 134 136 138 140 142 144 146 148 150 152 154 156 158 160 162 164 166 168 170 172 174 176 178 180 182 184 186 188 190 192 194 196 198 200 202 204 206 208 210 212 214 216 218 220 222 224 226 228 230 232 234 236 238 240 242 244 246 248 250 252 254 256 258 260 262 264 266 268 270 272 274 276 278 280 282 284 286 288 290 292 294 296 298 300 302 304 306 308 310 312 314 316 318 320 322 324 326 328 330 332 334 336 338 340 342 344 346 348 350 352 354 356 358 360 362 364 366 368 370 372 374 376 378 380 382 384 386 388 390 392 394 396 398 400 402 404 406 408 410 412 414 416 418 420 422 424 426 428 430 432 434 436 438 440 442 444 446 448 450 452 454 456 458 460 462 464 466 468 470 472 474 476 478 480 482 484 486 488 490 492 494 496 498 500 502 504 506 508 510 512 514 516 518 520 522 524 526 528 530 532 534 536 538 540 542 544 546 548 550 552 554 556 558 560 562 564 566 568 570 572 574 576 578 580 582 584 586 588 590 592 594 596 598 600 602 604 606 608 610 612 614 616 618 620 622 624 626 628 630 632 634 636 638 640 642 644 646 648 650 652 654 656 658 660 662 664 666 668 670 672 674 676 678 680 682 684 686 688 690 692 694 696 698 700 702 704 706 708 710 712 714 716 718 720 722 724 726 728 730 732 734 736 738 740 742 744 746 748 750 752 754 756 758 760 762 764 766 768 770 772 774 776 778 780 782 784 786 788 790 792 794 796 798 800 802 804 806 808 810 812 814 816 818 820 822 824 826 828 830 832 834 836 838 840 842 844 846 848 850 852 854 856 858 860 862 864 866 868 870 872 874 876 878 880 882 884 886 888 890 892 894 896 898 900 902 904 906 908 910 912 914 916 918 920 922 924 926 928 930 932 934 936 938 940 942 944 946 948 950 952 954 956 958 960 962 964 966 968 970 972 974 976 978 980 982 984 986 988 990 992 994 996 998 1000 1002 1004 1006 1008 1010 1012 1014 1016 1018 1020 1022 1024 1026 1028 1030 1032 1034 1036 1038 1040 1042 1044 1046 1048 1050 1052 1054 1056 1058 1060 1062 1064 1066 1068 1070 1072 1074 1076 1078 1080 1082 1084 1086 1088 1090 1092 1094 1096 1098 1100 1102 1104 1106 1108 1110 1112 1114 1116 1118 1120 1122 1124 1126 1128 1130 1132 1134 1136 1138 1140 1142 1144 1146 1148 1150 1152 1154 1156 1158 1160 1162 1164 1166 1168 1170 1172 1174 1176 1178 1180 1182 1184 1186 1188 1190 1192 1194 1196 1198 1200 1202 1204 1206 1208 1210 1212 1214 1216 1218 1220 1222 1224 1226 1228 1230 1232 1234 1236 1238 1240 1242 1244 1246 1248 1250 1252 1254 1256 1258 1260 1262 1264 1266 1268 1270 1272 1274 1276 1278 1280 1282 1284 1286 1288 1290 1292 1294 1296 1298 1300 1302 1304 1306 1308 1310 1312 1314 1316 1318 1320 1322 1324 1326 1328 1330 1332 1334 1336 1338 1340 1342 1344 1346 1348 1350 1352 1354 1356 1358 1360 1362 1364 1366 1368 1370 1372 1374 1376 1378 1380 1382 1384 1386 1388 1390 1392 1394 1396 1398 </DataArray>
<DataArray  type="UInt8"  Name="types"  format="ascii">3 3 3 3 3 3 3 3 3 3 3 3 3 3 3 3 3 3 3 3 3 3 3 3 3 3 3 3 3 3 3 3 3 3 3 3 3 3 3 3 3 3 3 3 3 3 3 3 3 3 3 3 3 3 3 3 3 3 3 3 3 3 3 3 3 3 3 3 3 3 3 3 3 3 3 3 3 3 3 3 3 3 3 3 3 3 3 3 3 3 3 3 3 3 3 3 3 3 3 3 3 3 3 3 3 3 3 3 3 3 3 3 3 3 3 3 3 3 3 3 3 3 3 3 3 3 3 3 3 3 3 3 3 3 3 3 3 3 3 3 3 3 3 3 3 3 3 3 3 3 3 3 3 3 3 3 3 3 3 3 3 3 3 3 3 3 3 3 3 3 3 3 3 3 3 3 3 3 3 3 3 3 3 3 3 3 3 3 3 3 3 3 3 3 3 3 3 3 3 3 3 3 3 3 3 3 3 3 3 3 3 3 3 3 3 3 3 3 3 3 3 3 3 3 3 3 3 3 3 3 3 3 3 3 3 3 3 3 3 3 3 3 3 3 3 3 3 3 3 3 3 3 3 3 3 3 3 3 3 3 3 3 3 3 3 3 3 3 3 3 3 3 3 3 3 3 3 3 3 3 3 3 3 3 3 3 3 3 3 3 3 3 3 3 3 3 3 3 3 3 3 3 3 3 3 3 3 3 3 3 3 3 3 3 3 3 3 3 3 3 3 3 3 3 3 3 3 3 3 3 3 3 3 3 3 3 3 3 3 3 3 3 3 3 3 3 3 3 3 3 3 3 3 3 3 3 3 3 3 3 3 3 3 3 3 3 3 3 3 3 3 3 3 3 3 3 3 3 3 3 3 3 3 3 3 3 3 3 3 3 3 3 3 3 3 3 3 3 3 3 3 3 3 3 3 3 3 3 3 3 3 3 3 3 3 3 3 3 3 3 3 3 3 3 3 3 3 3 3 3 3 3 3 3 3 3 3 3 3 3 3 3 3 3 3 3 3 3 3 3 3 3 3 3 3 3 3 3 3 3 3 3 3 3 3 3 3 3 3 3 3 3 3 3 3 3 3 3 3 3 3 3 3 3 3 3 3 3 3 3 3 3 3 3 3 3 3 3 3 3 3 3 3 3 3 3 3 3 3 3 3 3 3 3 3 3 3 3 3 3 3 3 3 3 3 3 3 3 3 3 3 3 3 3 3 3 3 3 3 3 3 3 3 3 3 3 3 3 3 3 3 3 3 3 3 3 3 3 3 3 3 3 3 3 3 3 3 3 3 3 3 3 3 3 3 3 3 3 3 3 3 3 3 3 3 3 3 3 3 3 3 3 3 3 3 3 3 3 3 3 3 3 3 3 3 3 3 3 3 3 3 3 3 3 3 3 3 3 3 3 3 3 3 3 3 3 3 3 3 3 3 3 3 3 3 3 3 3 3 3 3 3 3 3 3 3 3 3 3 3 3 3 3 3 3 3 3 3 3 3 3 3 3 3 3 3 3 3 3 3 3 3 3 3 3 3 3 3 3 3 3 3 3 3 3 3 3 3 3 3 3 3 3 3 3 3 3 3 3 </DataArray>
</Cells>
<CellData  Scalars="f">
<DataArray  type="Float64"  Name="f"  format="ascii">0 0 0 5 0 0 0 0 0 0 0 0 0 0 0 0 0 0 5 5 0 0 0 0 0 0 0 0 0 5 5 0 0 0 0 0 0 0 0 0 0 0 0 0 0 0 0 0 0 0 0 0 0 0 0 0 0 0 0 0 0 0 0 0 0 0 5 5 7 0 7 0 0 0 7 0 0 0 0 0 0 0 0 0 0 0 0 0 0 0 0 0 0 0 0 0 0 0 0 0 0 0 0 0 0 0 0 0 0 0 0 0 0 0 5 5 0 5 0 0 5 0 0 0 5 5 0 0 0 5 0 0 0 5 0 5 0 0 0 0 0 0 0 5 0 0 0 5 0 0 0 0 5 0 0 0 0 0 0 0 0 0 0 7 0 0 0 0 0 0 0 0 0 0 0 0 0 5 0 0 5 5 0 0 0 5 0 0 0 0 0 5 6 0 0 0 0 0 0 0 0 0 0 0 0 0 0 0 0 0 0 0 0 0 0 0 0 0 0 0 0 0 0 0 0 0 0 0 0 0 0 0 0 0 0 0 0 0 0 0 0 0 0 0 0 0 0 0 0 0 0 0 0 0 0 0 0 0 0 0 0 0 0 0 0 0 0 0 0 0 0 0 0 0 0 0 0 0 0 0 0 0 0 0 0 0 0 0 0 6 0 0 6 0 0 0 0 0 0 0 0 0 0 0 0 0 0 0 0 0 0 0 0 0 0 0 0 0 0 0 0 0 0 0 0 0 0 0 0 0 0 0 0 0 0 0 0 0 0 0 0 0 0 0 0 0 0 0 0 0 0 0 0 0 0 0 0 0 0 0 0 0 0 0 0 0 0 0 0 0 0 0 2 2 0 0 0 0 0 0 0 0 0 0 0 0 0 0 0 0 0 0 0 0 0 0 0 0 0 0 0 0 0 0 0 0 0 0 0 0 0 0 0 0 0 0 0 0 0 0 0 0 0 0 0 0 0 0 0 0 0 0 0 0 0 0 0 0 0 0 0 0 0 0 0 0 0 0 0 0 0 0 0 0 0 0 0 0 0 0 0 0 0 0 0 0 0 0 0 0 0 0 0 0 0 0 0 0 0 0 0 0 0 0 0 0 0 0 0 0 0 0 0 0 0 0 0 0 0 0 0 0 0 0 0 0 0 0 0 0 0 0 0 0 0 0 0 0 0 0 0 0 0 0 0 0 2 0 0 0 0 0 0 0 0 0 0 0 0 0 0 0 0 0 0 6 0 0 0 0 0 0 0 0 0 0 0 0 0 6 6 0 6 0 0 0 0 0 6 0 6 0 0 0 0 0 0 0 0 2 6 0 0 0 0 0 0 0 2 0 0 0 0 0 0 0 0 0 0 0 0 0 0 0 0 0 0 0 0 0 0 0 0 0 0 0 0 0 0 0 0 0 0 0 0 0 0 0 0 0 0 0 0 0 0 0 0 0 0 0 0 0 0 0 0 0 0 0 0 0 0 0 0 0 0 0 0 0 0 0 0 0 0 0 0 0 0 0 0 0 0 0 0 0 0 0 0 0 0 0 0 0 0 0 0 0 0 0 0 0 0 0 0 0 0 0 0 2 0 </DataArray>
</CellData>
</Piece>
</UnstructuredGrid>
</VTKFile>