<?xml version="1.0"?>
<VTKFile type="UnstructuredGrid"  version="0.1"  >
<UnstructuredGrid>
<Piece  NumberOfPoints="256" NumberOfCells="707">
<Points>
<DataArray  type="Float64"  NumberOfComponents="3"  format="ascii">0.1123698019379044 0.2058991360802581 0  0.1106531987626008 0.1894643335925837 0  0.09638298985168356 0.2000713960717276 0  0.0534241021414831 0.2075428856341382 0  0.07538638723190919 0.1915913195394167 0  0.06726459509928774 0.2147740778951952 0  0.05117116986370451 0.1453484941029572 0  0.028576868323113 0.1257840022252348 0  0.02526469030969892 0.1581631046774197 0  0.07781603907681035 0.1514291067465787 0  0.06748599119092742 0.1295390004813558 0  0.1133943915886014 0.3302098901172357 0  0.1085927601152855 0.3576703429582752 0  0.1291050229147523 0.3369598757086243 0  0.1876570762350594 0.2701429686523801 0  0.1759534499456636 0.268744809012302 0  0.1862475166430347 0.2806184243256064 0  0.04799687037553593 0.1900185470502504 0  0.1704873609912336 0.2583583661241701 0  0.1801707401936674 0.2578452677740249 0  0 0.3514285714286952 0  0.03215830272795324 0.3311110896359255 0  0.02400550655420258 0.3538155845945724 0  0.09145562669711395 0.175668370620234 0  0.09635163646555502 0.1596076048115481 0  0.07646146193815946 0.1687797331838 0  0 0.05857142857161107 0  0 0.02928571428580012 0  0.02797905238142366 0.04239836249189064 0  0.1521457199348437 0.2144902684393899 0  0.1547844879126531 0.221343792228163 0  0.1460074103989341 0.2155962236814484 0  0.06224717571675014 0.16049953533406 0  0 0.1464285714289574 0  0.1340109150974826 0.1326286508362426 0  0.1230381620938855 0.1450531231009962 0  0.1371388187715824 0.1487519394947238 0  0.09921229729781815 0.216694589313852 0  0 0.3221428571430699 0  0.1502170850938848 0.1478553695050668 0  0.1492552100538899 0.1320415135830948 0  0.1603037058708973 0.1432581839427922 0  0.1022962111550141 0.273832470550381 0  0.1121786756446853 0.257597694764058 0  0.1185619469878228 0.2730177051871591 0  0.09898678642452967 0.1862327908870533 0  0.05939492550527375 0.3149957962361826 0  0.03411173555592004 0.3013214948275056 0  0.1503920612246686 0.252658552798053 0  0.1407371787724462 0.2442700623456801 0  0.1431093770171943 0.2599228455937608 0  0.09191660917863548 0.3399083220637153 0  0.1291780217515827 0.2400382025520897 0  0.1325512871714925 0.2548933203634119 0  0.05400790163887537 0.1101452894911868 0  0.03212895351398194 0.09444182905744057 0  0.1613699074131162 0.2874965309748423 0  0.1497954449456231 0.3068853213507886 0  0.1704962809759384 0.2989815459796012 0  0.1292063859387973 0.160179270973018 0  0.2004289920815778 0.2885787263743592 0  0.1987596795720009 0.2706417532988148 0  0.1273239957535623 0.41 0  0.1550887940203835 0.3759695678273732 0  0.1305531867707806 0.3723894882772687 0  0.06140001986584975 0.41 0  0.08484979611354741 0.3801877867628078 0  0.05922009696123734 0.3774661510110062 0  0.1314207338941352 0.2277905748945162 0  0.1208839583881551 0.2181173442085023 0  0.1226326835593179 0.232510509637589 0  0.09377624077128965 0.41 0  0.09380266644077194 0.2576101652245613 0  0.1712191068054211 0.2792458170307043 0  0.1315669208937715 0.2153401624373302 0  0.08319468457824891 0.2132940804249223 0  0.05506284017382649 0.2425906156552861 0  0.03234799839792719 0.2322323714096635 0  0.03317213267821684 0.2576605437337542 0  0.0655461589766832 0.3354809920423228 0  0.132972307375135 0.2702075053542861 0  0.1310410255455362 0.2846992571580754 0  0.05202618668915951 0.3533574174069209 0  0.0341778808147269 0.3756898840960821 0  0.1452227811648972 0.2894657338151946 0  0.1440834152269613 0.2215292013094449 0  0.1427902997716637 0.232150825925387 0  0.1544083940701868 0.2357510323977007 0  0.1491192377089382 0.242360482241113 0  0.1851735785078722 0.2631071774152569 0  0.1151037363297016 0.1585854167638264 0  0.1231191457617618 0.1724983802372761 0  0.1502092543645781 0.2281484929999839 0  0.1620856860352591 0.41 0  0.1654256928847844 0.3451700819208795 0  0.1447999649086052 0.3470007664317952 0  0.1355360062927427 0.1738833905690768 0  0.157033859236083 0.1549203861564464 0  0.1666775543554036 0.1527311555964813 0  0.13855578359055 0.1617173140777549 0  0 0.3807142857143437 0  0.1050372607361503 0.1429640509822009 0  0.0935028978038551 0.1155179240798671 0  0.111152240021284 0.1189096594659376 0  0.1054072552277489 0.1021549990488465 0  0.1096093854383046 0.1735927505678576 0  0 0.2050000000005308 0  0 0.175714285714732 0  0.02618711892167316 0.1853857958188918 0  0.01613142829340684 0.1072217040510405 0  0.122936306709419 0.1942457603434553 0  0.1362495245357279 0.2216212078679356 0  0.06019518928764452 0.1756854700606436 0  0.02666772661991777 0.0679778810487357 0  0 0.1171428571431897 0  0.1014345676140794 0.1290819941168235 0  0.1307646098417589 0.3010050716147269 0  0.128782395741745 0.3539195748014988 0  0.117949309539449 0.1314289940198134 0  0.03021129466766341 0.2085417214687756 0  0.1036135449877143 0.05738959277900078 0  0.09466282906331301 0.08157239522441412 0  0.07832843537012292 0.06126359650172827 0  0.1391384346554765 0.1858795044738252 0  0.145931504770643 0.1790663128181236 0  0.1571318226843289 0.245420672996831 0  0.1664692005849321 0.2475709156417281 0  0.1604617194638936 0.2557893928243108 0  0.122631157988491 0.09257199523221718 0  0.1134537715612197 0.07678361544475715 0  0.1110093235748128 0.3847859225763507 0  0.1550656232429279 0.2649227029563504 0  0.1583987151778488 0.2277368545647528 0  0.1629104300036858 0.2335315343742052 0  0.1543497545781645 0.1644684805108295 0  0.1465332544464342 0.1576333074590302 0  0.05222303834057849 0.2265528286728498 0  0.1432528331866671 0.1403427880156989 0  0.1099554730833504 0.2189591019945387 0  0.1148334976584671 0.02974143409366008 0  0.09081855865494762 0.03967545099949583 0  0.08022298127737337 0.02066125809180845 0  0.04764878584873936 0.2783518915062873 0  0.02152627632804056 0.2799148982921386 0  0.1682222986671726 0.2386028198193036 0  0.1742197252833576 0.2428413052501257 0  0.1445088930113995 0.1682503620331025 0  0.02189315577988027 0.02003654345635235 0  0 0.29285714285744 0  0.1547844879126891 0.178656207771761 0  0.1521457199348551 0.1855097315605723 0  0.01744870257335064 0.3130375866803607 0  0.1666231880877755 0.3117643555727803 0  0.1841090525772461 0.3084299065503739 0  0.1776920932687694 0.3258630445439892 0  0.08173043279897278 0.3240331352477369 0  0.1154525741111949 0.2885583797282378 0  0.1230762637185412 0.2499754423532209 0  0.1505393388476328 0.2073241380633295 0  0.1411840007379324 0.2116418969121702 0  0.1759665552266909 0.3607453311538497 0  0.1917080515020064 0.3413476842478615 0  0.09153146034330391 0.147014376487579 0  0.09198816075892419 0.2415871005044956 0  0.07716692921624396 0.2463138536171241 0  0.1461228744239319 0.2700598172698123 0  0.162910430003803 0.1664684656256651 0  0.1583987151779087 0.1722631454351573 0  0.1287170257632792 0.184020996598548 0  0.1949745518995776 0.2497468076502398 0  0.1988936168129591 0.2591743361304991 0  0.1892742072748776 0.2564561470775296 0  0 0.2635714285718054 0  0.15 0.2 0  0.1505393388476355 0.1926758619366523 0  0.1422409429600901 0.1949058082424083 0  0.08753885022423818 0.1327572923195972 0  0.09377624077125973 0 0  0.1190100010379731 0.1821161889112382 0  0.1752851331147261 0.2508158313127855 0  0.0844877739943079 0.2754278344382655 0  0.142418795187722 0.2037346032343752 0  0.07558403699563009 0.2617898205222132 0  0.1957380535525476 0.3607047222935699 0  0.216380800632318 0.3798697230577418 0  0.1837099792663048 0.3830312172891498 0  0.114265829400523 0.2274814703880861 0  0.0206009415950734 0.3930565358299628 0  0.07847443385504081 0.3566824448208936 0  0.01618611334675497 0.2427628432417809 0  0.07646641941334627 0.2901165423065792 0  0.09694893303991545 0.2918649843860019 0  0.08032811137534199 0.3068839858890652 0  0.09752865082683917 0.3073326190116618 0  0.1512336529604225 0.1723680822309486 0  0.1877417105384929 0.2484740584176516 0  0.05089208832759198 0.1278218136608264 0  0.07652608185644398 0.1136649778936783 0  0 0.08785714285737878 0  0.1417345422718611 0.1196357446143074 0  0.1608308335189591 0.3262714997547831 0  0.1985922711404066 0.3216774874340058 0  0.1031728984437735 0.2318497950763309 0  0.05856578271688782 0.295628513006081 0  0.1647287152160364 0.2637534120846467 0  0.1222490905968041 0.0568943244623543 0  0.1125187550934686 0.3075252986550676 0  0.09922070399794995 0.322662239561371 0  0.05279799154606677 0.07413248748556238 0  0.1618784257508376 0.2400587086087321 0  0.05175480232928564 0.05161223413186988 0  0.05876177350501315 0.2607579702960333 0  0.1358250422386446 0.2356584720209315 0  0.1253993623290572 0.2064220893288703 0  0.1239298454268555 0.2616776157580057 0  0.04263766443679855 0.3932630345153014 0  0.1147948284867253 0.2412597685036574 0  0.1807733240458683 0.2461555514727623 0  0.1461361374362119 0.1877340006482242 0  0.04532626869875341 0.1677660334507069 0  0.1441725906822958 0.3262643694130186 0  0.1334936092195415 0.1996994045566088 0  0.1771221153651656 0.2877467988749257 0  0.05608725465409541 0.09204870468608509 0  0.07392371664175142 0.2310989703896346 0  0.09023810730875097 0.2272487027068034 0  0.1619806510917199 0.1601561579838679 0  0.1682222986673531 0.1613971801805478 0  0.1416315037575542 0.2787693322658609 0  0.1981052433265003 0.41 0  0.1298722944302657 0.3189004895954476 0  0.07008568006437076 0.038573163912329 0  0.1827267976827431 0.2517822297587077 0  0 0 0  0.03015443760436003 0 0  0.1632849702488283 0.2726003915760372 0  0.01505266539966814 0.2227442931166357 0  0.1340862878862802 0.2075381961934842 0  0.07522121061998752 0.08286780747833024 0  0.06140001986583606 0 0  0.04981329681653419 0.02287349761798159 0  0.1261668873624441 0.1203748521618074 0  0.1332359054626095 0.1910279922431038 0  0.1865831931948131 0.2944379361003471 0  0.2000381356635816 0.3047271648646204 0  0.1185608756269049 0.1083965233746596 0  0.1028747054530789 0.2468430767368829 0  0.1319376419904144 0.1078314072630599 0  0.1528547616279626 0.2778511520150422 0  0 0.41 0  0.03015443760436654 0.41 0  0.1921250322631934 0.2639147861870621 0  0.08823391104783466 0.09873317213709612 0  0 0.2342857142861561 0  0.06676399188859611 0.2764140668439541 0  0.0736413556775514 0.09691323218918799 0  </DataArray>
</Points>
<Cells>
<DataArray  type="UInt32"  Name="connectivity"  format="ascii">0 1  0 2  0 37  0 69  0 110  0 138  0 213  1 2  1 45  1 105  1 110  1 178  2 4  2 37  2 45  2 75  3 4  3 5  3 17  3 119  3 136  4 5  4 17  4 23  4 25  4 45  4 75  4 112  5 75  5 136  5 224  6 7  6 8  6 9  6 10  6 32  6 196  6 219  7 8  7 33  7 54  7 55  7 109  7 114  7 196  8 33  8 107  8 108  8 219  9 10  9 24  9 25  9 32  9 162  9 176  10 54  10 176  10 196  10 197  11 12  11 13  11 51  11 206  11 207  11 230  12 13  12 51  12 64  12 66  12 117  12 130  12 188  13 95  13 117  13 220  13 230  14 15  14 16  14 61  14 89  14 251  15 16  15 18  15 19  15 73  15 89  15 204  15 235  16 60  16 61  16 73  16 222  16 243  17 108  17 112  17 119  17 219  18 19  18 126  18 127  18 179  18 204  19 89  19 171  19 179  19 232  20 21  20 22  20 38  20 100  21 22  21 38  21 46  21 47  21 79  21 82  21 151  22 82  22 83  22 100  23 24  23 25  23 45  23 105  24 25  24 90  24 101  24 105  24 162  25 32  25 112  26 27  26 28  26 113  26 198  27 28  27 147  27 233  28 113  28 147  28 210  28 240  29 30  29 31  29 158  30 31  30 85  30 92  30 132  31 85  31 158  31 159  32 112  32 219  33 107  33 114  34 35  34 36  34 40  34 118  34 137  34 199  34 241  35 36  35 59  35 90  35 101  35 118  36 39  36 59  36 99  36 135  36 137  37 75  37 138  37 202  37 225  38 148  38 151  39 40  39 41  39 97  39 135  39 137  40 41  40 137  40 199  41 97  41 98  42 43  42 44  42 72  42 156  42 180  42 191  43 44  43 72  43 157  43 214  43 216  43 246  44 80  44 81  44 156  44 214  45 105  46 47  46 79  46 155  46 192  46 203  47 142  47 143  47 148  47 151  47 203  48 49  48 50  48 88  48 125  48 127  48 131  49 50  49 52  49 53  49 86  49 88  49 212  50 53  50 80  50 131  50 165  51 79  51 155  51 188  51 207  52 53  52 68  52 70  52 157  52 212  52 216  53 80  53 157  53 214  54 55  54 196  54 197  54 223  54 255  55 109  55 113  55 198  55 208  55 223  56 57  56 58  56 73  56 84  56 222  56 235  56 248  57 58  57 84  57 116  57 152  57 200  57 220  57 230  58 152  58 153  58 222  58 243  59 90  59 91  59 96  59 99  60 61  60 243  60 244  61 170  61 251  62 63  62 64  62 71  62 93  62 130  63 64  63 93  63 94  63 95  63 160  63 185  64 95  64 117  64 130  65 66  65 67  65 71  65 215  65 250  66 67  66 71  66 130  66 188  67 82  67 83  67 188  67 215  68 69  68 70  68 74  68 86  68 111  68 212  69 70  69 74  69 138  69 186  69 213  70 186  70 216  71 130  72 163  72 164  72 180  72 182  72 246  73 222  73 235  74 111  74 159  74 213  74 237  75 224  75 225  76 77  76 78  76 136  76 164  76 211  76 224  77 78  77 119  77 136  77 189  77 236  78 142  78 143  78 172  78 189  78 211  79 82  79 155  79 188  80 81  80 165  80 214  80 228  81 84  81 116  81 156  81 228  82 83  82 188  83 100  83 187  83 215  84 116  84 228  84 248  85 86  85 92  85 111  85 159  86 87  86 88  86 92  86 111  86 212  87 88  87 92  87 125  87 132  87 133  87 209  88 125  89 171  89 251  90 91  90 101  90 105  91 96  91 105  91 168  91 178  92 132  93 185  93 229  94 95  94 154  94 160  94 161  94 200  95 117  95 200  95 220  96 99  96 123  96 124  96 146  96 168  97 98  97 134  97 135  97 226  98 226  98 227  99 135  99 146  100 187  100 249  101 115  101 118  101 162  101 176  102 103  102 104  102 115  102 176  102 197  102 252  103 104  103 115  103 118  103 241  103 245  104 121  104 128  104 129  104 245  104 252  105 178  106 107  106 108  106 119  106 236  106 253  107 108  108 119  108 219  109 114  109 198  110 168  110 178  110 213  110 221  110 242  111 159  112 219  113 198  113 208  113 210  114 198  115 118  115 176  116 156  116 206  116 230  118 241  119 136  119 236  120 121  120 122  120 129  120 139  120 140  120 205  121 122  121 129  121 238  121 252  122 140  122 208  122 210  122 231  122 238  123 124  123 168  123 175  123 218  123 242  124 146  124 149  124 150  124 194  124 218  125 126  125 127  125 209  126 127  126 144  126 145  126 179  126 209  127 131  127 204  128 129  128 245  128 247  129 205  131 165  131 204  131 235  131 248  132 133  133 144  133 209  134 135  134 146  134 166  134 167  134 194  134 226  135 146  136 224  138 186  138 202  139 140  139 141  139 177  139 205  140 141  140 231  141 177  141 231  141 239  141 240  142 143  142 203  142 211  142 254  143 148  143 172  144 145  144 209  145 179  145 217  146 194  147 233  147 234  147 240  148 151  148 172  149 150  149 167  149 194  150 174  150 218  152 153  152 154  152 200  153 154  153 201  153 243  153 244  154 161  154 200  154 201  155 192  155 193  155 207  156 191  156 206  157 214  157 216  158 159  158 173  158 181  159 181  159 237  160 161  160 183  160 185  161 183  161 201  162 176  163 164  163 202  163 224  163 225  163 246  164 182  164 211  164 224  165 228  165 248  166 167  166 226  166 227  167 194  168 178  168 242  169 170  169 171  169 195  170 171  170 251  171 195  171 232  171 251  172 189  172 253  173 174  173 175  173 181  174 175  174 218  175 181  175 218  175 221  175 242  176 197  177 239  179 217  179 232  180 182  180 190  180 191  180 254  181 221  181 237  182 211  182 254  183 184  183 185  184 185  184 229  185 229  186 202  186 216  187 215  187 249  187 250  189 236  189 253  190 191  190 192  190 203  190 254  191 192  191 193  191 206  192 193  192 203  193 206  193 207  195 217  195 232  197 252  197 255  199 241  199 247  200 220  201 244  202 216  202 225  202 246  203 254  204 235  206 207  206 230  208 210  208 223  208 238  210 231  210 240  211 254  213 221  213 237  215 250  216 246  217 232  220 230  221 237  221 242  222 243  223 238  223 255  224 225  226 227  228 248  231 240  233 234  234 239  234 240  235 248  236 253  238 252  238 255  239 240  241 245  241 247  243 244  245 247  249 250  252 255  </DataArray>
<DataArray  type="UInt32"  Name="offsets"  format="ascii">2 4 6 8 10 12 14 16 18 20 22 24 26 28 30 32 34 36 38 40 42 44 46 48 50 52 54 56 58 60 62 64 66 68 70 72 74 76 78 80 82 84 86 88 90 92 94 96 98 100 102 104 106 108 110 112 114 116 118 120 122 124 126 128 130 132 134 136 138 140 142 144 146 148 150 152 154 156 158 160 162 164 166 168 170 172 174 176 178 180 182 184 186 188 190 192 194 196 198 200 202 204 206 208 210 212 214 216 218 220 222 224 226 228 230 232 234 236 238 240 242 244 246 248 250 252 254 256 258 260 262 264 266 268 270 272 274 276 278 280 282 284 286 288 290 292 294 296 298 300 302 304 306 308 310 312 314 316 318 320 322 324 326 328 330 332 334 336 338 340 342 344 346 348 350 352 354 356 358 360 362 364 366 368 370 372 374 376 378 380 382 384 386 388 390 392 394 396 398 400 402 404 406 408 410 412 414 416 418 420 422 424 426 428 430 432 434 436 438 440 442 444 446 448 450 452 454 456 458 460 462 464 466 468 470 472 474 476 478 480 482 484 486 488 490 492 494 496 498 500 502 504 506 508 510 512 514 516 518 520 522 524 526 528 530 532 534 536 538 540 542 544 546 548 550 552 554 556 558 560 562 564 566 568 570 572 574 576 578 580 582 584 586 588 590 592 594 596 598 600 602 604 606 608 610 612 614 616 618 620 622 624 626 628 630 632 634 636 638 640 642 644 646 648 650 652 654 656 658 660 662 664 666 668 670 672 674 676 678 680 682 684 686 688 690 692 694 696 698 700 702 704 706 708 710 712 714 716 718 720 722 724 726 728 730 732 734 736 738 740 742 744 746 748 750 752 754 756 758 760 762 764 766 768 770 772 774 776 778 780 782 784 786 788 790 792 794 796 798 800 802 804 806 808 810 812 814 816 818 820 822 824 826 828 830 832 834 836 838 840 842 844 846 848 850 852 854 856 858 860 862 864 866 868 870 872 874 876 878 880 882 884 886 888 890 892 894 896 898 900 902 904 906 908 910 912 914 916 918 920 922 924 926 928 930 932 934 936 938 940 942 944 946 948 950 952 954 956 958 960 962 964 966 968 970 972 974 976 978 980 982 984 986 988 990 992 994 996 998 1000 1002 1004 1006 1008 1010 1012 1014 1016 1018 1020 1022 1024 1026 1028 1030 1032 1034 1036 1038 1040 1042 1044 1046 1048 1050 1052 1054 1056 1058 1060 1062 1064 1066 1068 1070 1072 1074 1076 1078 1080 1082 1084 1086 1088 1090 1092 1094 1096 1098 1100 1102 1104 1106 1108 1110 1112 1114 1116 1118 1120 1122 1124 1126 1128 1130 1132 1134 1136 1138 1140 1142 1144 1146 1148 1150 1152 1154 1156 1158 1160 1162 1164 1166 1168 1170 1172 1174 1176 1178 1180 1182 1184 1186 1188 1190 1192 1194 1196 1198 1200 1202 1204 1206 1208 1210 1212 1214 1216 1218 1220 1222 1224 1226 1228 1230 1232 1234 1236 1238 1240 1242 1244 1246 1248 1250 1252 1254 1256 1258 1260 1262 1264 1266 1268 1270 1272 1274 1276 1278 1280 1282 1284 1286 1288 1290 1292 1294 1296 1298 1300 1302 1304 1306 1308 1310 1312 1314 1316 1318 1320 1322 1324 1326 1328 1330 1332 1334 1336 1338 1340 1342 1344 1346 1348 1350 1352 1354 1356 1358 1360 1362 1364 1366 1368 1370 1372 1374 1376 1378 1380 1382 1384 1386 1388 1390 1392 1394 1396 1398 1400 1402 1404 1406 1408 1410 1412 1414 </DataArray>
<DataArray  type="UInt8"  Name="types"  format="ascii">3 3 3 3 3 3 3 3 3 3 3 3 3 3 3 3 3 3 3 3 3 3 3 3 3 3 3 3 3 3 3 3 3 3 3 3 3 3 3 3 3 3 3 3 3 3 3 3 3 3 3 3 3 3 3 3 3 3 3 3 3 3 3 3 3 3 3 3 3 3 3 3 3 3 3 3 3 3 3 3 3 3 3 3 3 3 3 3 3 3 3 3 3 3 3 3 3 3 3 3 3 3 3 3 3 3 3 3 3 3 3 3 3 3 3 3 3 3 3 3 3 3 3 3 3 3 3 3 3 3 3 3 3 3 3 3 3 3 3 3 3 3 3 3 3 3 3 3 3 3 3 3 3 3 3 3 3 3 3 3 3 3 3 3 3 3 3 3 3 3 3 3 3 3 3 3 3 3 3 3 3 3 3 3 3 3 3 3 3 3 3 3 3 3 3 3 3 3 3 3 3 3 3 3 3 3 3 3 3 3 3 3 3 3 3 3 3 3 3 3 3 3 3 3 3 3 3 3 3 3 3 3 3 3 3 3 3 3 3 3 3 3 3 3 3 3 3 3 3 3 3 3 3 3 3 3 3 3 3 3 3 3 3 3 3 3 3 3 3 3 3 3 3 3 3 3 3 3 3 3 3 3 3 3 3 3 3 3 3 3 3 3 3 3 3 3 3 3 3 3 3 3 3 3 3 3 3 3 3 3 3 3 3 3 3 3 3 3 3 3 3 3 3 3 3 3 3 3 3 3 3 3 3 3 3 3 3 3 3 3 3 3 3 3 3 3 3 3 3 3 3 3 3 3 3 3 3 3 3 3 3 3 3 3 3 3 3 3 3 3 3 3 3 3 3 3 3 3 3 3 3 3 3 3 3 3 3 3 3 3 3 3 3 3 3 3 3 3 3 3 3 3 3 3 3 3 3 3 3 3 3 3 3 3 3 3 3 3 3 3 3 3 3 3 3 3 3 3 3 3 3 3 3 3 3 3 3 3 3 3 3 3 3 3 3 3 3 3 3 3 3 3 3 3 3 3 3 3 3 3 3 3 3 3 3 3 3 3 3 3 3 3 3 3 3 3 3 3 3 3 3 3 3 3 3 3 3 3 3 3 3 3 3 3 3 3 3 3 3 3 3 3 3 3 3 3 3 3 3 3 3 3 3 3 3 3 3 3 3 3 3 3 3 3 3 3 3 3 3 3 3 3 3 3 3 3 3 3 3 3 3 3 3 3 3 3 3 3 3 3 3 3 3 3 3 3 3 3 3 3 3 3 3 3 3 3 3 3 3 3 3 3 3 3 3 3 3 3 3 3 3 3 3 3 3 3 3 3 3 3 3 3 3 3 3 3 3 3 3 3 3 3 3 3 3 3 3 3 3 3 3 3 3 3 3 3 3 3 3 3 3 3 3 3 3 3 3 3 3 3 3 3 3 3 3 3 3 3 3 3 3 3 3 3 3 3 3 3 3 3 3 3 3 3 3 3 3 3 3 3 3 3 3 3 3 3 3 3 3 3 3 3 3 3 3 3 3 3 3 3 3 3 3 3 3 3 3 3 3 3 3 3 3 3 3 3 3 3 3 3 3 3 3 3 3 3 3 </DataArray>
</Cells>
<CellData  Scalars="f">
<DataArray  type="Float64"  Name="f"  format="ascii">0 0 0 0 0 0 0 0 0 0 0 0 0 0 0 0 0 0 0 0 0 0 0 0 0 0 0 0 0 0 0 0 0 0 0 0 0 0 0 0 0 0 0 0 0 0 0 0 0 0 0 0 0 0 0 0 0 0 0 0 0 0 0 0 0 0 0 0 0 0 0 0 0 0 0 0 0 0 0 0 0 0 0 0 0 0 0 0 0 0 0 0 0 0 0 0 0 0 0 0 0 0 0 0 0 0 0 0 3 3 0 0 0 0 0 0 0 0 0 0 0 0 0 0 0 0 0 0 0 0 0 3 0 0 3 0 0 3 0 0 0 0 6 0 6 0 0 0 6 0 0 0 0 0 3 3 0 0 0 0 0 0 0 0 0 0 0 0 0 0 0 0 0 0 0 0 0 3 0 0 0 0 0 0 0 0 0 0 0 0 0 0 0 0 0 0 0 0 0 0 0 0 0 0 0 0 0 0 0 0 0 0 0 0 0 0 0 0 0 0 0 0 0 0 0 0 0 0 0 0 0 0 0 0 0 0 0 0 0 0 0 0 0 0 0 0 0 0 0 0 0 0 0 0 0 0 0 0 0 0 0 0 0 0 0 0 0 0 0 0 0 0 0 0 0 0 0 0 0 0 0 0 0 0 2 2 0 0 0 0 0 0 0 0 0 0 0 0 2 0 2 0 0 0 0 0 0 0 0 0 0 0 0 0 0 0 0 0 0 0 0 0 0 0 0 0 0 0 0 0 0 0 0 0 0 0 0 0 0 0 0 0 0 0 0 0 0 0 0 0 0 0 0 0 0 0 0 0 0 0 0 0 0 0 0 0 0 0 0 0 0 0 0 0 0 0 0 0 0 0 0 0 0 0 0 0 0 0 0 0 0 0 0 0 0 0 0 0 2 0 0 0 0 0 0 0 0 0 0 0 0 0 0 0 0 0 0 0 0 0 0 3 0 0 0 0 0 0 0 0 0 0 0 0 0 0 0 0 0 0 0 0 0 3 0 0 0 3 0 0 0 0 0 0 0 0 0 0 0 0 0 0 0 3 0 0 0 0 0 0 0 0 0 0 0 0 0 0 0 0 0 0 0 0 0 0 0 0 0 0 0 0 0 0 0 0 0 0 0 0 0 0 0 0 0 0 0 0 0 0 0 0 0 0 0 6 6 0 0 0 0 0 0 0 0 0 0 0 0 0 0 0 0 0 0 0 0 0 0 0 0 0 0 0 6 0 0 6 0 0 0 0 0 3 6 6 0 6 0 0 0 0 0 0 0 0 0 0 0 0 0 0 0 0 0 0 0 6 0 0 0 0 0 0 0 0 0 0 0 0 0 0 0 0 0 0 0 6 0 6 0 0 0 0 0 6 0 0 0 0 0 0 3 6 0 0 0 0 0 0 0 0 0 2 0 0 0 0 0 0 0 0 0 0 0 0 0 0 0 0 0 0 0 0 0 0 0 0 0 0 0 0 0 0 0 0 0 6 0 0 0 0 0 0 0 0 0 0 0 0 0 0 0 0 0 0 0 0 0 0 0 0 0 0 0 0 0 0 0 0 0 0 0 2 2 0 0 0 0 0 0 0 0 0 0 2 0 </DataArray>
</CellData>
</Piece>
</UnstructuredGrid>
</VTKFile>