<?xml version="1.0"?>
<VTKFile type="UnstructuredGrid"  version="0.1"  >
<UnstructuredGrid>
<Piece  NumberOfPoints="255" NumberOfCells="712">
<Points>
<DataArray  type="Float64"  NumberOfComponents="3"  format="ascii">0.5626584888143201 0.21 0  0.5633122436674589 0.1999814296467508 0  0.5571672426447437 0.2036011176410121 0  0.5626584888145268 0.19 0  0.5688286748170428 0.1961819304477386 0  0.5688286748170693 0.203818069552238 0  0.5571594006495384 0.1963685282145804 0  0.6 0.21 0  0.5925316977628483 0.21 0  0.5955705746706843 0.2069223055301326 0  0.6 0.19 0  0.5925316977628897 0.19 0  0.5965740209510578 0.1927759733278094 0  0.5887803774232762 0.2001272386983733 0  0.5815926498168407 0.1966545283159175 0  0.5814408164431408 0.2041285596160068 0  0.5850633955257988 0.19 0  0.5775950932887378 0.19 0  0.5893814947531364 0.2056233639521408 0  0.6 0.2 0  0.6 0.1950000000000217 0  0.594380730180568 0.1966558399668133 0  0.5745072403740523 0.2002044435018727 0  0.5066462220363641 0.199999999999908 0  0.4991779197992749 0.1970915826863902 0  0.4991779197988497 0.2040749161535382 0  0.5215828265105155 0.1999999999999228 0  0.5141145242734466 0.1970915826863843 0  0.5141145242731028 0.2040749161535395 0  0.5365194309847112 0.1999999999999436 0  0.5290511287476175 0.1970915826863981 0  0.5290511287473298 0.2040749161535501 0  0.5511891430099709 0.2001122610077113 0  0.5439877332217911 0.197091582686394 0  0.5439623148931173 0.2040856076781014 0  0.5327852798661811 0.19 0  0.5253169776290537 0.19 0  0.547721884340339 0.19 0  0.5402535821032429 0.19 0  0.5178486753919799 0.19 0  0.5103803731549078 0.19 0  0.502912070917822 0.19 0  0.4954437686807294 0.19 0  0.5946539510196798 0.2024302972968126 0  0.5701267910514778 0.21 0  0.5701267910515998 0.19 0  0.574400031298126 0.1945411130107761 0  0.5887471324735476 0.1946190227059995 0  0.5551901865771842 0.21 0  0.6 0.2050000000000054 0  0.5066462220358396 0.2056971942287649 0  0.5215828265100828 0.2056971942287677 0  0.5365194309843644 0.2056971942287865 0  0.5514560354586301 0.2056971942287897 0  0.5551901865773963 0.19 0  0.5743797868482748 0.2056178169806182 0  0.5365194309847112 0.1943028057711659 0  0.5215828265105155 0.1943028057711514 0  0.5511851248594936 0.1945772515115504 0  0.5066462220363641 0.1943028057711422 0  0.5103803731544119 0.21 0  0.5178486753915261 0.21 0  0.5402535821029386 0.21 0  0.54772188434007 0.21 0  0.5253169776286404 0.21 0  0.5327852798657868 0.21 0  0.5775950932886138 0.21 0  0.5850633955257281 0.21 0  0.502912070917267 0.21 0  0.5022733717445609 0.2484520140959261 0  0.5039200503329727 0.2634569969024956 0  0.4870587955368383 0.2511092200731516 0  0.5019588293971892 0.1448324961346233 0  0.5202014138752529 0.1378594850692911 0  0.5186581766834214 0.1505504706653799 0  0.5805147821309363 0.1750906865638377 0  0.5830971905392573 0.1610562557540074 0  0.5891905322413319 0.173297484523883 0  0.4991779197992711 0.167693385507626 0  0.4900906149793102 0.1565876018036352 0  0.5082652246192162 0.1565876018036352 0  0.5740383564454857 0.232486177523615 0  0.5800331369475803 0.2220172718503647 0  0.5872716114964233 0.2289047791562547 0  0.5669464924360815 0.2475839849813879 0  0.5841951273902199 0.2421589553533847 0  0.5209814004512184 0.2362962593649592 0  0.5347760817351684 0.2414500964404198 0  0.5183393333239584 0.2464065549333135 0  0.5461387848636305 0.1174764669537213 0  0.5361687701469152 0.1326608756097835 0  0.5197325460646487 0.1214075108099659 0  0.5857082964501902 0.1444062384003248 0  0.5690392421172527 0.1384821647678796 0  0.5733051421814971 0.1505504706653721 0  0.5166834276845828 0.2571581640138182 0  0.596265848881445 0.1672046255295837 0  0.589683001657349 0.3059206033515077 0  0.5678918321244223 0.2848057098346606 0  0.5916500441695769 0.2809526698769227 0  0.5813292444071699 0.2563523755659055 0  0.5593867837568711 0.2625481287604455 0  0.5380469068795991 0.270190988877121 0  0.5487739828661812 0.2837987172973246 0  0.4852224147682477 0.2693506158480865 0  0.537795959080102 0.3217164911732622 0  0.5084674509460629 0.3444400826937225 0  0.512571303534115 0.315294881441146 0  0.4421897352483806 0.3061937447056332 0  0.4679743527986476 0.2938700081288894 0  0.4504932786869968 0.2799586344600427 0  0.5813292444072671 0.1834697536045245 0  0.5742993681899213 0.1835891178222343 0  0.5439877332217901 0.1676928600783786 0  0.5349004284018322 0.1565876018036672 0  0.5520209547307013 0.1576841814684212 0  0.5561563723763112 0.3041501920577169 0  0.4707920865830447 0.3486070579413962 0  0.4787676469414335 0.3785383868246253 0  0.6065875229028267 0.1922148945199381 0  0.5688911489504639 0.2221570651130901 0  0.5600714413167317 0.2168050759646857 0  0.5668496426355557 0.2152032773847839 0  0.5691769360607744 0.103623921999164 0  0.5817033662356486 0.1258684224449203 0  0.5656709189996393 0.1218263852353965 0  0.4993542269391089 0.2308107468212473 0  0.5064903940750056 0.2246838314870058 0  0.5123638022628456 0.2310955071885417 0  0.5666635607831564 0.161267807310367 0  0.5731424580414761 0.1690378585407531 0  0.5588244563271773 0.225349035787779 0  0.5519051872593019 0.2166420053265535 0  0.544963993717515 0.2555062458890662 0  0.5257318662464058 0.1055286630332995 0  0.5950070799606315 0.1111116928105405 0  0.59743928374328 0.184845006919697 0  0.6044284617508302 0.1869248475987405 0  0.536567636007916 0.2275987754591341 0  0.5283542774025207 0.2302880001042248 0  0.5455709551586724 0.2324144452751203 0  0.6034720826395079 0.3406552446218118 0  0.5683897549737816 0.3290580395153129 0  0.5701061294197327 0.1769562172296277 0  0.546982877175164 0.2233942294772845 0  0.5365194309843644 0.2180863504285254 0  0.5444469726554123 0.2157339702670886 0  0.5448392573395288 0.1456266733529302 0  0.560873207311089 0.1493935172983297 0  0.4601355054144107 0.2625386919569297 0  0.4744155700740079 0.2566595549135983 0  0.4713424846317688 0.2745508899070743 0  0.5084573036363184 0.2395108277223441 0  0.5299710643811397 0.2566376774421922 0  0.596265848881424 0.2354323641502947 0  0.5989004035231642 0.2514987524731583 0  0.541625169083316 0.3526746646055688 0  0.506255180108809 0.1312411055441881 0  0.4895894057788134 0.3280526958589806 0  0.605300577487017 0.1810288040931519 0  0.5216178319364539 0.1813492122870838 0  0.5265047000024197 0.2223941974774756 0  0.5173146390988945 0.3796900489573174 0  0.5966020906539898 0.1778579871513863 0  0.5292128724209423 0.2936972872082567 0  0.5209430201332119 0.2710369260536757 0  0.507058739830649 0.2805607505285516 0  0.5286910337265995 0.2154702409242758 0  0.5150278681324471 0.2228450308306156 0  0.5214285426002536 0.2161011329323836 0  0.5536582001352554 0.1343709232030346 0  0.4904006859619667 0.3067892894525832 0  0.4892189727163938 0.2873772533228455 0  0.5631143150331265 0.2366473934541688 0  0.4676405937283705 0.3189200602945363 0  0.5595716197895517 0.176498756977387 0  0.566392639933061 0.1840461062417861 0  0.595034110037278 0.08371649311769892 0  0.5768392741880191 0.2703425200264898 0  0.6100254542261326 0.2029134597827689 0  0.6200567937109939 0.1981193972299755 0  0.6109529519469615 0.19670324045761 0  0.5504647692515866 0.2417078359721865 0  0.5443827500055026 0.09366669778791233 0  0.5740261188292279 0.2158012409855351 0  0.6035153318756115 0.216380925869335 0  0.6045977536612152 0.2079044120944432 0  0.5888145049962641 0.182376060046032 0  0.559009501696121 0.184247465949259 0  0.553378981997341 0.2322691570724318 0  0.5869673343225223 0.41 0  0.5770529515268702 0.3629450529032476 0  0.5527077665762991 0.3828459005111343 0  0.4444416418673275 0.3371826323410143 0  0.4460062899873121 0.3720706817615101 0  0.5962264926010817 0.2155692304460942 0  0.5215828265105156 0.1622083790703317 0  0.499237761463083 0.2192785032300353 0  0.5075668509025225 0.2171084086245455 0  0.5886496198982827 0.2178532325665078 0  0.5963374227678123 0.2233833965505087 0  0.6048429996566183 0.2280441552220857 0  0.6154136810599321 0.175174545882801 0  0.6039303205755 0.1726140165641641 0  0.6083886978654316 0.1626240187349565 0  0.5143590539697885 0.2155988592715468 0  0.6140419833156984 0.1920012542761988 0  0.6209583882721262 0.1847010880111589 0  0.5066462220363641 0.1826726487251085 0  0.5208355992062484 0.2285465546466679 0  0.556227780909367 0.2515606281824664 0  0.5366299525895074 0.1825690825227473 0  0.5514474833664602 0.1826065372792922 0  0.4898985359610427 0.2395108277223441 0  0.4869999746943883 0.2308048359320609 0  0.6047562880647869 0.1975000000000114 0  0.5141191916635692 0.1837683957184422 0  0.4867628426197099 0.1672556638427207 0  0.5290511287476175 0.1834818376483974 0  0.5114371803269665 0.2974349400710795 0  0.5115929969788211 0.1672556638427288 0  0.5666194772443838 0.07265723178580256 0  0.6186516859309905 0.2076004596739355 0  0.6065667631161428 0.2400998453881159 0  0.4895008759292634 0.41 0  0.4433053055145528 0.41 0  0.5653857196022115 0.1707921017691255 0  0.5312943323845036 0.1447479119997123 0  0.5294745265341012 0.1761054820336709 0  0.5316967135713353 0.1673421178078786 0  0.4923756029794709 0.2245693836696246 0  0.5141145242734466 0.1755365127551412 0  0.5662965898088369 0.2290837557773043 0  0.5562468381785084 0.1675066640297715 0  0.5975491358239944 0.1534040596821995 0  0.5373680609412221 0.41 0  0.4997232129797319 0.2393335372925151 0  0.5811564300792245 0.2152441767609544 0  0.6104992711520371 0.2118453231978703 0  0.4991779197992725 0.1783172034453956 0  0.4923389098589435 0.1741809711526818 0  0.506016929739597 0.1741809711526895 0  0.5216289307659581 0.1713997813123399 0  0.6107068242365286 0.2205343762889329 0  0.4842413153250809 0.1755365127551258 0  0.4917096175621761 0.1826726487251064 0  0.5439877332217904 0.1783210023422619 0  0.5371890579013414 0.1744210598886847 0  0.5509385065020694 0.1745004300116409 0  0.4991779197992735 0.1849089375109228 0  0.5439877332217911 0.1852618121745313 0  0.6043492189278221 0.2025000000000026 0  0.5926483197196849 0.2655989755524508 0  0.5932743238853959 0.04945528001359441 0  0.6112872589661165 0.1855979267337469 0  </DataArray>
</Points>
<Cells>
<DataArray  type="UInt32"  Name="connectivity"  format="ascii">0 1  0 2  0 5  0 44  0 48  0 121  0 122  1 2  1 3  1 4  1 5  1 6  2 6  2 32  2 48  2 53  3 4  3 6  3 45  3 54  3 176  3 188  4 5  4 22  4 45  4 46  5 22  5 44  5 55  6 32  6 54  6 58  7 8  7 9  7 49  7 185  7 186  7 195  8 9  8 18  8 67  8 195  8 199  9 18  9 43  9 49  10 11  10 12  10 20  10 119  10 136  10 137  11 12  11 16  11 21  11 47  11 136  11 187  12 20  12 21  13 14  13 15  13 18  13 21  13 43  13 47  14 15  14 16  14 17  14 22  14 46  14 47  15 18  15 22  15 55  15 66  15 67  16 17  16 47  16 111  16 187  17 45  17 46  17 111  17 112  18 43  18 67  19 20  19 21  19 43  19 49  19 215  19 251  20 21  20 119  20 215  21 43  21 47  22 46  22 55  23 24  23 25  23 27  23 28  23 50  23 59  24 25  24 41  24 42  24 59  25 50  25 68  26 27  26 28  26 30  26 31  26 51  26 57  27 28  27 39  27 40  27 57  27 59  28 50  28 51  28 60  28 61  29 30  29 31  29 33  29 34  29 52  29 56  30 31  30 35  30 36  30 56  30 57  31 51  31 52  31 64  31 65  32 33  32 34  32 53  32 58  33 34  33 37  33 38  33 56  33 58  34 52  34 53  34 62  34 63  35 36  35 38  35 56  35 211  35 218  36 39  36 57  36 160  36 218  37 38  37 54  37 58  37 212  37 250  38 56  38 211  38 250  39 40  39 57  39 160  39 216  40 41  40 59  40 208  40 216  41 42  41 59  41 208  41 249  42 245  42 249  43 49  44 55  44 66  44 122  44 184  45 46  45 112  45 176  48 53  48 63  48 121  48 132  49 186  49 251  50 60  50 68  51 61  51 64  52 62  52 65  53 63  54 58  54 188  54 212  55 66  60 61  60 68  60 198  60 205  61 64  61 169  61 205  62 63  62 65  62 145  62 146  63 132  63 146  64 65  64 167  64 169  65 145  65 167  66 67  66 184  66 237  67 199  67 237  68 197  68 198  69 70  69 71  69 88  69 95  69 152  69 213  69 236  70 71  70 95  70 104  70 165  70 166  71 104  71 150  71 213  72 73  72 74  72 79  72 80  72 157  73 74  73 90  73 91  73 157  73 227  74 80  74 114  74 196  74 227  75 76  75 77  75 111  75 112  75 130  75 143  75 187  76 77  76 92  76 94  76 96  76 129  76 130  76 234  77 96  77 163  77 187  78 79  78 80  78 217  78 220  78 239  78 240  78 241  79 80  79 217  80 196  80 220  81 82  81 83  81 84  81 85  81 120  81 173  81 232  82 83  82 120  82 184  82 199  82 237  83 85  83 154  83 199  83 200  84 85  84 100  84 101  84 173  84 210  85 100  85 154  85 155  86 87  86 88  86 128  86 139  86 152  86 209  87 88  87 133  87 138  87 139  87 140  87 153  87 182  88 95  88 152  88 153  89 90  89 91  89 123  89 125  89 134  89 170  89 183  90 91  90 147  90 170  90 227  91 134  91 157  92 93  92 94  92 124  92 234  93 94  93 124  93 125  93 148  93 170  94 129  94 148  95 153  95 165  96 163  96 203  96 204  96 234  97 98  97 99  97 116  97 141  97 142  98 99  98 101  98 103  98 116  98 178  99 178  99 252  100 101  100 155  100 178  100 252  101 102  101 103  101 133  101 178  101 210  102 103  102 133  102 153  102 164  102 165  103 116  103 164  104 150  104 151  104 166  104 172  105 106  105 107  105 116  105 142  105 156  105 164  106 107  106 117  106 118  106 156  106 158  106 162  107 158  107 164  107 171  107 219  108 109  108 110  108 174  108 193  109 110  109 151  109 171  109 172  109 174  110 149  110 151  111 112  111 187  112 143  112 176  113 114  113 115  113 229  113 233  113 246  113 247  113 248  114 115  114 147  114 196  114 227  114 229  115 129  115 147  115 148  115 233  116 142  116 164  117 118  117 158  117 174  117 193  117 194  118 162  118 194  118 224  118 225  119 137  119 181  119 206  119 215  119 254  120 121  120 122  120 131  120 184  120 232  121 122  121 131  121 132  122 184  123 124  123 125  123 135  123 177  123 183  123 221  124 125  124 135  125 170  126 127  126 128  126 152  126 197  126 213  126 214  126 230  126 236  127 128  127 168  127 197  127 198  128 152  128 168  128 209  129 130  129 148  129 226  129 233  130 143  130 226  131 132  131 144  131 173  131 189  131 232  132 144  132 146  133 153  133 182  133 210  134 183  135 177  136 137  136 159  136 163  136 187  137 159  137 254  138 139  138 140  138 144  138 145  138 161  139 161  139 209  140 144  140 182  140 189  141 142  141 191  142 156  142 191  143 175  143 176  143 226  144 145  144 146  144 189  145 146  145 161  145 167  147 148  147 170  147 227  148 170  149 150  149 151  150 151  151 172  152 236  153 165  154 155  154 200  154 201  154 223  155 223  155 252  156 162  156 191  156 192  158 171  158 174  159 163  159 202  159 203  159 254  160 216  160 218  160 228  160 231  160 242  161 167  161 168  161 169  161 209  162 192  162 224  162 235  163 187  163 203  164 165  164 166  164 219  165 166  166 172  166 219  167 169  168 169  168 198  168 205  168 209  169 205  171 172  171 174  171 219  172 219  173 182  173 189  173 210  173 232  174 193  175 176  175 188  175 212  175 226  175 233  175 248  176 188  177 221  177 253  178 252  179 180  179 181  179 186  179 215  179 222  179 238  179 251  180 181  180 206  180 207  180 222  181 206  181 215  182 189  182 210  183 221  184 237  185 186  185 195  185 200  185 201  185 238  185 243  186 238  186 251  188 212  190 191  190 192  190 235  191 192  192 235  193 194  194 225  195 199  195 200  196 220  196 229  196 242  197 198  197 230  198 205  199 200  199 237  200 201  201 223  201 243  202 203  202 204  202 207  202 254  203 204  204 234  206 207  206 254  207 254  208 216  208 231  208 239  208 241  208 249  211 218  211 228  211 246  211 247  211 250  212 246  212 248  212 250  213 214  213 236  214 230  215 251  216 231  217 240  217 244  218 228  220 231  220 241  220 242  221 253  222 238  224 225  224 235  226 233  228 229  228 242  228 247  229 242  229 247  231 241  231 242  233 248  238 243  239 240  239 241  239 245  239 249  240 244  240 245  244 245  245 249  246 247  246 248  246 250  </DataArray>
<DataArray  type="UInt32"  Name="offsets"  format="ascii">2 4 6 8 10 12 14 16 18 20 22 24 26 28 30 32 34 36 38 40 42 44 46 48 50 52 54 56 58 60 62 64 66 68 70 72 74 76 78 80 82 84 86 88 90 92 94 96 98 100 102 104 106 108 110 112 114 116 118 120 122 124 126 128 130 132 134 136 138 140 142 144 146 148 150 152 154 156 158 160 162 164 166 168 170 172 174 176 178 180 182 184 186 188 190 192 194 196 198 200 202 204 206 208 210 212 214 216 218 220 222 224 226 228 230 232 234 236 238 240 242 244 246 248 250 252 254 256 258 260 262 264 266 268 270 272 274 276 278 280 282 284 286 288 290 292 294 296 298 300 302 304 306 308 310 312 314 316 318 320 322 324 326 328 330 332 334 336 338 340 342 344 346 348 350 352 354 356 358 360 362 364 366 368 370 372 374 376 378 380 382 384 386 388 390 392 394 396 398 400 402 404 406 408 410 412 414 416 418 420 422 424 426 428 430 432 434 436 438 440 442 444 446 448 450 452 454 456 458 460 462 464 466 468 470 472 474 476 478 480 482 484 486 488 490 492 494 496 498 500 502 504 506 508 510 512 514 516 518 520 522 524 526 528 530 532 534 536 538 540 542 544 546 548 550 552 554 556 558 560 562 564 566 568 570 572 574 576 578 580 582 584 586 588 590 592 594 596 598 600 602 604 606 608 610 612 614 616 618 620 622 624 626 628 630 632 634 636 638 640 642 644 646 648 650 652 654 656 658 660 662 664 666 668 670 672 674 676 678 680 682 684 686 688 690 692 694 696 698 700 702 704 706 708 710 712 714 716 718 720 722 724 726 728 730 732 734 736 738 740 742 744 746 748 750 752 754 756 758 760 762 764 766 768 770 772 774 776 778 780 782 784 786 788 790 792 794 796 798 800 802 804 806 808 810 812 814 816 818 820 822 824 826 828 830 832 834 836 838 840 842 844 846 848 850 852 854 856 858 860 862 864 866 868 870 872 874 876 878 880 882 884 886 888 890 892 894 896 898 900 902 904 906 908 910 912 914 916 918 920 922 924 926 928 930 932 934 936 938 940 942 944 946 948 950 952 954 956 958 960 962 964 966 968 970 972 974 976 978 980 982 984 986 988 990 992 994 996 998 1000 1002 1004 1006 1008 1010 1012 1014 1016 1018 1020 1022 1024 1026 1028 1030 1032 1034 1036 1038 1040 1042 1044 1046 1048 1050 1052 1054 1056 1058 1060 1062 1064 1066 1068 1070 1072 1074 1076 1078 1080 1082 1084 1086 1088 1090 1092 1094 1096 1098 1100 1102 1104 1106 1108 1110 1112 1114 1116 1118 1120 1122 1124 1126 1128 1130 1132 1134 1136 1138 1140 1142 1144 1146 1148 1150 1152 1154 1156 1158 1160 1162 1164 1166 1168 1170 1172 1174 1176 1178 1180 1182 1184 1186 1188 1190 1192 1194 1196 1198 1200 1202 1204 1206 1208 1210 1212 1214 1216 1218 1220 1222 1224 1226 1228 1230 1232 1234 1236 1238 1240 1242 1244 1246 1248 1250 1252 1254 1256 1258 1260 1262 1264 1266 1268 1270 1272 1274 1276 1278 1280 1282 1284 1286 1288 1290 1292 1294 1296 1298 1300 1302 1304 1306 1308 1310 1312 1314 1316 1318 1320 1322 1324 1326 1328 1330 1332 1334 1336 1338 1340 1342 1344 1346 1348 1350 1352 1354 1356 1358 1360 1362 1364 1366 1368 1370 1372 1374 1376 1378 1380 1382 1384 1386 1388 1390 1392 1394 1396 1398 1400 1402 1404 1406 1408 1410 1412 1414 1416 1418 1420 1422 1424 </DataArray>
<DataArray  type="UInt8"  Name="types"  format="ascii">3 3 3 3 3 3 3 3 3 3 3 3 3 3 3 3 3 3 3 3 3 3 3 3 3 3 3 3 3 3 3 3 3 3 3 3 3 3 3 3 3 3 3 3 3 3 3 3 3 3 3 3 3 3 3 3 3 3 3 3 3 3 3 3 3 3 3 3 3 3 3 3 3 3 3 3 3 3 3 3 3 3 3 3 3 3 3 3 3 3 3 3 3 3 3 3 3 3 3 3 3 3 3 3 3 3 3 3 3 3 3 3 3 3 3 3 3 3 3 3 3 3 3 3 3 3 3 3 3 3 3 3 3 3 3 3 3 3 3 3 3 3 3 3 3 3 3 3 3 3 3 3 3 3 3 3 3 3 3 3 3 3 3 3 3 3 3 3 3 3 3 3 3 3 3 3 3 3 3 3 3 3 3 3 3 3 3 3 3 3 3 3 3 3 3 3 3 3 3 3 3 3 3 3 3 3 3 3 3 3 3 3 3 3 3 3 3 3 3 3 3 3 3 3 3 3 3 3 3 3 3 3 3 3 3 3 3 3 3 3 3 3 3 3 3 3 3 3 3 3 3 3 3 3 3 3 3 3 3 3 3 3 3 3 3 3 3 3 3 3 3 3 3 3 3 3 3 3 3 3 3 3 3 3 3 3 3 3 3 3 3 3 3 3 3 3 3 3 3 3 3 3 3 3 3 3 3 3 3 3 3 3 3 3 3 3 3 3 3 3 3 3 3 3 3 3 3 3 3 3 3 3 3 3 3 3 3 3 3 3 3 3 3 3 3 3 3 3 3 3 3 3 3 3 3 3 3 3 3 3 3 3 3 3 3 3 3 3 3 3 3 3 3 3 3 3 3 3 3 3 3 3 3 3 3 3 3 3 3 3 3 3 3 3 3 3 3 3 3 3 3 3 3 3 3 3 3 3 3 3 3 3 3 3 3 3 3 3 3 3 3 3 3 3 3 3 3 3 3 3 3 3 3 3 3 3 3 3 3 3 3 3 3 3 3 3 3 3 3 3 3 3 3 3 3 3 3 3 3 3 3 3 3 3 3 3 3 3 3 3 3 3 3 3 3 3 3 3 3 3 3 3 3 3 3 3 3 3 3 3 3 3 3 3 3 3 3 3 3 3 3 3 3 3 3 3 3 3 3 3 3 3 3 3 3 3 3 3 3 3 3 3 3 3 3 3 3 3 3 3 3 3 3 3 3 3 3 3 3 3 3 3 3 3 3 3 3 3 3 3 3 3 3 3 3 3 3 3 3 3 3 3 3 3 3 3 3 3 3 3 3 3 3 3 3 3 3 3 3 3 3 3 3 3 3 3 3 3 3 3 3 3 3 3 3 3 3 3 3 3 3 3 3 3 3 3 3 3 3 3 3 3 3 3 3 3 3 3 3 3 3 3 3 3 3 3 3 3 3 3 3 3 3 3 3 3 3 3 3 3 3 3 3 3 3 3 3 3 3 3 3 3 3 3 3 3 3 3 3 3 3 3 3 3 3 3 3 3 3 3 3 3 3 3 3 3 3 3 3 3 3 3 3 3 3 3 3 3 3 3 3 3 3 3 3 3 3 3 3 3 3 3 3 3 3 3 3 3 3 3 3 3 </DataArray>
</Cells>
<CellData  Scalars="f">
<DataArray  type="Float64"  Name="f"  format="ascii">0 0 0 5 5 0 0 0 0 0 0 0 0 0 0 0 0 0 5 5 0 0 0 0 0 0 0 0 0 0 0 0 5 0 5 0 0 0 0 0 5 0 0 0 0 0 5 0 5 0 0 0 0 5 0 0 0 0 0 0 0 0 0 0 0 0 0 0 0 0 0 0 0 0 0 0 0 5 0 0 0 5 0 0 0 0 0 5 0 0 5 0 0 0 0 0 0 0 0 0 0 0 0 0 0 0 0 0 0 0 0 0 0 0 0 0 0 0 0 0 0 0 0 0 0 0 0 0 0 0 0 0 0 0 0 0 0 0 0 0 0 0 0 0 0 0 0 0 0 0 0 0 0 0 0 5 5 0 0 0 5 0 0 0 5 5 0 0 0 0 0 0 5 0 0 0 5 0 0 0 5 0 0 0 0 0 0 0 5 0 0 0 0 0 0 5 0 0 0 0 0 0 0 0 0 0 0 0 0 0 0 5 5 0 0 5 0 0 5 5 0 0 0 0 5 0 0 0 0 5 0 0 0 0 0 0 0 0 0 0 0 0 0 0 0 0 0 0 0 0 0 0 0 0 0 0 0 0 0 0 0 0 0 0 0 0 0 0 0 0 0 0 0 0 0 0 0 0 0 0 0 0 0 0 0 0 0 0 0 0 0 0 0 0 0 0 0 0 0 0 0 0 0 0 0 0 0 0 0 0 0 0 0 0 0 0 0 0 0 0 0 0 0 0 0 0 0 0 0 0 0 0 0 0 0 0 0 0 0 0 0 0 0 0 0 0 0 0 0 0 0 0 0 0 0 0 0 0 0 0 0 0 0 0 0 0 0 0 0 0 0 0 0 0 0 0 0 0 0 0 0 0 0 0 0 0 0 0 0 0 0 0 0 0 0 0 0 0 0 0 0 0 0 0 0 0 0 0 0 0 0 0 0 0 0 0 0 0 0 0 0 0 0 0 0 0 0 0 0 0 0 0 0 0 0 0 0 0 0 0 0 0 0 0 0 0 0 0 0 0 0 0 0 0 0 0 0 0 0 0 0 0 0 0 0 0 0 0 0 0 0 0 0 0 0 0 0 0 0 0 0 0 0 0 0 0 0 0 0 0 0 0 0 0 0 0 0 0 0 0 0 0 0 0 0 0 0 0 0 0 0 0 0 0 0 0 0 0 0 0 0 0 0 0 0 0 0 0 0 0 0 0 0 0 0 0 0 0 0 0 0 0 0 0 0 0 0 0 0 0 0 0 0 0 0 0 0 0 0 0 0 0 0 0 0 0 0 0 0 0 0 0 0 0 0 0 0 0 0 0 0 0 0 0 0 0 0 0 0 0 0 0 0 0 0 0 0 0 0 0 0 0 0 0 0 0 0 0 0 0 0 0 0 0 0 0 0 0 0 0 0 0 0 0 0 0 0 0 0 0 0 0 0 0 0 0 2 0 0 0 0 0 0 0 0 0 0 0 0 0 0 0 0 0 0 0 0 0 0 0 0 0 0 0 0 0 0 0 0 0 0 0 0 0 0 0 0 0 0 0 0 0 0 0 0 0 0 0 0 2 2 0 0 0 0 0 0 0 0 0 0 0 0 0 0 0 0 0 0 0 0 0 </DataArray>
</CellData>
</Piece>
</UnstructuredGrid>
</VTKFile>