<?xml version="1.0"?>
<VTKFile type="UnstructuredGrid"  version="0.1"  >
<UnstructuredGrid>
<Piece  NumberOfPoints="257" NumberOfCells="717">
<Points>
<DataArray  type="Float64"  NumberOfComponents="3"  format="ascii">0.4207607463097617 0.19 0  0.4201487168029707 0.1999966199048527 0  0.4261685417851465 0.196409292431739 0  0.4145905603061963 0.1961819304479011 0  0.4207607463087888 0.21 0  0.4145905603063645 0.2038180695522843 0  0.4262598344738712 0.2036568242185335 0  0.446899804139621 0.1999999999998389 0  0.4394315019025246 0.1970915826863714 0  0.4394608940728603 0.2040870543693135 0  0.3946216884789568 0.2000000000001512 0  0.4020059614928624 0.203547899597858 0  0.4019979587101454 0.1959834479682427 0  0.4618364086138087 0.1999999999998546 0  0.4543681063767183 0.1970915826863795 0  0.4543681063761134 0.2040749161535186 0  0.3796850840047755 0.200000000000134 0  0.3871533862418661 0.2029084173136212 0  0.3871533862424271 0.1959250838464788 0  0.476773013087985 0.1999999999998713 0  0.4693047108508938 0.1970915826863783 0  0.4693047108503577 0.2040749161535231 0  0.4917096175621762 0.1999999999998808 0  0.4842413153250809 0.1970915826863873 0  0.4842413153245942 0.2040749161535287 0  0.4991779197992749 0.1970915826863902 0  0.4991779197988497 0.2040749161535382 0  0.3722167817676917 0.2029084173136195 0  0.372246743208829 0.1959123236376545 0  0.4089549580935208 0.1998691686391595 0  0.4322718174608562 0.200127451265745 0  0.4730388619694271 0.19 0  0.4655705597323621 0.19 0  0.4879754664436223 0.19 0  0.4805071642065402 0.19 0  0.383419235123329 0.21 0  0.3908875373604028 0.21 0  0.4581022574952563 0.19 0  0.4506339552581777 0.19 0  0.3983558395975142 0.21 0  0.4058241418345938 0.21 0  0.4431656530210671 0.19 0  0.4356973507839815 0.19 0  0.4132924440726327 0.19 0  0.4132924440716992 0.21 0  0.4282290485468779 0.19 0  0.4468998041387391 0.2056971942287257 0  0.3946216884797873 0.1943028057712679 0  0.4618364086130068 0.2056971942287359 0  0.3796850840055151 0.1943028057712579 0  0.4767730130872753 0.2056971942287455 0  0.4917096175615203 0.2056971942287492 0  0.4319631996644724 0.205697194228716 0  0.4282290485459029 0.21 0  0.4090477820585017 0.1944069323162114 0  0.4767730130879849 0.1943028057711153 0  0.3759509328862226 0.21 0  0.3796850840047754 0.2056971942288865 0  0.4618364086138088 0.1943028057711072 0  0.3946216884789569 0.2056971942288966 0  0.446899804139621 0.194302805771098 0  0.4917096175621761 0.1943028057711214 0  0.4954437686807294 0.19 0  0.4322275012857285 0.1945847121082109 0  0.409279320968396 0.2055930218740123 0  0.480507164205851 0.21 0  0.4879754664429498 0.21 0  0.4655705597315852 0.21 0  0.4730388619686996 0.21 0  0.3908875373612097 0.19 0  0.3834192351240934 0.19 0  0.4506339552573136 0.21 0  0.4581022574944306 0.21 0  0.4954437686800938 0.21 0  0.502912070917267 0.21 0  0.4058241418354857 0.19 0  0.3983558395983636 0.19 0  0.4356973507830418 0.21 0  0.4431656530201649 0.21 0  0.3759509328869369 0.19 0  0.4543681063767173 0.1676928600783137 0  0.4456512193123995 0.1563006663224736 0  0.4634554111966759 0.156587601803556 0  0.4619845553363554 0.2471559623297018 0  0.4744155700740079 0.2566595549135983 0  0.4718174066442032 0.2448602332187449 0  0.401463131821351 0.2240614152536154 0  0.4020899907160548 0.2165302463955136 0  0.3946216884789568 0.2158195727016258 0  0.4319631996644723 0.2259854221051505 0  0.4420138570927455 0.2303582032589531 0  0.4274409436629797 0.2358490737568498 0  0.4953767731769588 0.1188694761679334 0  0.506255180108809 0.1312411055441881 0  0.5197325460646487 0.1214075108099659 0  0.4787056372270673 0.2371901345199761 0  0.4898985359610427 0.2395108277223441 0  0.4870587955368383 0.2511092200731516 0  0.4421897352483806 0.3061937447056332 0  0.4302139512950107 0.2879708289588951 0  0.412607471649106 0.2990503898016255 0  0.3909674209965625 0.2226356941037057 0  0.4143465137990051 0.05322961011747924 0  0.3866266297147894 0.03466711669742863 0  0.3886771468199661 0.07134613381357163 0  0.499237761463083 0.2192785032300353 0  0.4333214399877798 0.2707568063501644 0  0.4117097904773068 0.2792362674983541 0  0.4219952157594144 0.2615029378934271 0  0.4687683012296924 0.2234572950360006 0  0.4652183412607249 0.234253800772318 0  0.4767526104577227 0.2273866629412239 0  0.4552963513014363 0.145444894720247 0  0.4735622322288027 0.1489594066447112 0  0.4391642236404037 0.2185040792853546 0  0.430606184336534 0.1007106891413896 0  0.4121197549442807 0.08306196356607598 0  0.4341927647953854 0.06945916972568383 0  0.4626056464247933 0.2175583716511612 0  0.4543958902951323 0.217783002687627 0  0.4618276563023947 0.226295708468006 0  0.4474989647342493 0.1297107067022473 0  0.4322147276797816 0.1208036360979848 0  0.4500639844785546 0.1038268107662773 0  0.4504932786869968 0.2799586344600427 0  0.4538259418580106 0.08513891830322172 0  0.3803545031770169 0.2233799225275491 0  0.3868315570898186 0.2161590584307608 0  0.4166532952113353 0.2316189381631693 0  0.4140433986437475 0.2417572010675891 0  0.4582183089687113 0.05889916916817712 0  0.4771650921173667 0.0345682490428623 0  0.4786311469264966 0.07193451402067624 0  0.4537654266604936 0.2283937178128906 0  0.4470337295051696 0.2214450572771946 0  0.4601355054144107 0.2625386919569297 0  0.4091898654769304 0.2539103800220315 0  0.4020607667170538 0.2413000663289324 0  0.3933451459320382 0.2499378971246431 0  0.4468857282753376 0.2152350613820568 0  0.3871183818181629 0.1813492091082587 0  0.3871533862426517 0.1622083790690482 0  0.4004709881341373 0.156587601801244 0  0.383930166391577 0.149077512173999 0  0.4319982050913569 0.1813492122870563 0  0.464700493006123 0.1337957577261608 0  0.5869673343216626 0 0  0.5932743238853959 0.04945528001359441 0  0.5584639495217296 0.03508113340585634 0  0.4386378054355863 0.2427664002734886 0  0.4767380076620556 0.1813492122870721 0  0.398571556794488 0.2667712515333163 0  0.5081447438790341 0.05715290841304708 0  0.3797734699465006 0.2157346552691785 0  0.3871533862418662 0.2377916209307866 0  0.3951819405974831 0.2310626528016624 0  0.4614662289214904 0.1185262515411474 0  0.424428444001246 0.2176032464898874 0  0.4319631996644723 0.2156279113565238 0  0.505337249077668 0.1024328896935337 0  0.398267784857306 0.2897726550924405 0  0.4767730130872752 0.2184019876485795 0  0.431963199665431 0.1622083790702696 0  0.4308549333301598 0.1502035540486048 0  0.4116738586544235 0.1041859387663523 0  0.4510553949639345 0.2400598894424664 0  0.4244157537195716 0.2482530512201678 0  0.4095582929531458 0.2174316143878764 0  0.4767730130879849 0.1622083790703084 0  0.4900906149793102 0.1565876018036352 0  0.4105467584982695 0.2658772111092724 0  0.3871533862426518 0.1004535961197204 0  0.4048211958526272 0.1196730942586016 0  0.448875629425473 0.2527683700708778 0  0.387533158164613 0.1229770158841918 0  0.5390824052225628 0.06744833187951048 0  0.5212239823753633 0.08492404393226735 0  0.4910031975930484 0.2171006717137592 0  0.4433053055141081 0 0  0.4410855102972552 0.03751680874040594 0  0.3969581968524311 0.1447077887708589 0  0.5666194772443838 0.07265723178580256 0  0.4767730130879849 0.1004582016456482 0  0.3862411203249935 0.2293080201888169 0  0.4065987454210035 0.2329337197796252 0  0.4895008759286886 0 0  0.4095582929540822 0.1690366057399949 0  0.3975186920292402 0.1660535232065472 0  0.4096953638692593 0.1593611747926069 0  0.4357040734592776 0.2558482019948566 0  0.4020899907169248 0.1826726487248222 0  0.4215978938789503 0.1660535232066034 0  0.4170265951911974 0.1826726487248186 0  0.4777970859082697 0.1375242924454789 0  0.4102372344314323 0.2256491670083618 0  0.4470091562036288 0.18256890171664 0  0.4617258870090093 0.1826555625495994 0  0.4423561517299195 0.1449296933988149 0  0.4917096175621761 0.1826726487251064 0  0.3796850840055151 0.1834818329761566 0  0.3946170212231889 0.1837683952945248 0  0.4236090047368721 0.2262216159300549 0  0.5257318662464058 0.1055286630332995 0  0.3722102571583817 0.2173806806735415 0  0.4244995648184416 0.1837683957183748 0  0.4394315019025247 0.1834818376483804 0  0.442117717086971 0.1672874945454806 0  0.477253129614999 0.1229170029909243 0  0.4990943684003321 0.08379643703559929 0  0.4693047108508937 0.1834818376483876 0  0.4842366479349569 0.1837683957184343 0  0.4169851174148118 0.2217509578443784 0  0.4666592720111949 0.1673206601298049 0  0.4870209690086496 0.1445552225959656 0  0.5373680609405097 0 0  0.4693357546089872 0.2160476853278769 0  0.4841984187204001 0.2159109988582109 0  0.4398548996890094 0.1761054820336394 0  0.3765649579409498 0.2346032306023708 0  0.3830052789765099 0.2465504596596307 0  0.3946216884797873 0.1755365127550408 0  0.4200158654557485 0.1549967047228304 0  0.4688813130644119 0.1761054820336536 0  0.4244948974283196 0.1755365127551117 0  0.4842413153250809 0.1755365127551258 0  0.3716385577875085 0.2254972730720332 0  0.4095582929540587 0.1783322890925096 0  0.402719283013572 0.174362078603009 0  0.4163973028945601 0.1743620786030245 0  0.3870163828938027 0.1711802904735331 0  0.4846260107628763 0.2228898464509046 0  0.5312379346123596 0.03921294785544463 0  0.4867628426197099 0.1672556638427207 0  0.4869999746943883 0.2308048359320609 0  0.4319720988215174 0.1712601408791398 0  0.3987229542472677 0 0  0.416528437774832 0.02576952322240761 0  0.454355826198406 0.1783191038782875 0  0.4476321386943704 0.1742462878721009 0  0.4611006434060722 0.1742578426498367 0  0.3881774741414789 0.1375237980955535 0  0.4007921484923099 0.1334520017217418 0  0.4767269250530047 0.1713973971258736 0  0.5443827500055026 0.09366669778791233 0  0.4460825720969575 0.2652057710885948 0  0.4170265951902442 0.2149173540338034 0  0.4094216635085727 0.1459162970206419 0  0.4171240435965357 0.130709948522703 0  0.4923756029794709 0.2245693836696246 0  0.4095582929540592 0.1849109489303113 0  0.510662702819522 0.02256181955995177 0  0.4543663130808365 0.1848930798107721 0  0.4214619365707062 0.1433505759463181 0  0.4908029823839455 0.1335072113564198 0  0.5019588293971892 0.1448324961346233 0  0.4315229872852132 0.1375769537565516 0  0.4191531770983273 0.1155832460350826 0  </DataArray>
</Points>
<Cells>
<DataArray  type="UInt32"  Name="connectivity"  format="ascii">0 1  0 2  0 3  0 43  0 45  0 192  0 204  1 2  1 3  1 4  1 5  1 6  2 6  2 30  2 45  2 63  3 5  3 29  3 43  3 54  4 5  4 6  4 44  4 53  4 157  4 245  5 29  5 44  5 64  6 30  6 52  6 53  7 8  7 9  7 14  7 15  7 46  7 60  8 9  8 30  8 41  8 42  8 60  8 63  9 30  9 46  9 52  9 77  9 78  10 11  10 12  10 17  10 18  10 47  10 59  11 12  11 29  11 39  11 40  11 59  11 64  12 29  12 47  12 54  12 75  12 76  13 14  13 15  13 20  13 21  13 48  13 58  14 15  14 37  14 38  14 58  14 60  15 46  15 48  15 71  15 72  16 17  16 18  16 27  16 28  16 49  16 57  17 18  17 35  17 36  17 57  17 59  18 47  18 49  18 69  18 70  19 20  19 21  19 23  19 24  19 50  19 55  20 21  20 31  20 32  20 55  20 58  21 48  21 50  21 67  21 68  22 23  22 24  22 25  22 26  22 51  22 61  23 24  23 33  23 34  23 55  23 61  24 50  24 51  24 65  24 66  25 26  25 61  25 62  26 51  26 73  26 74  27 28  27 56  27 57  28 49  28 79  29 54  29 64  30 52  30 63  31 32  31 34  31 55  31 150  31 209  32 37  32 58  32 196  32 209  33 34  33 61  33 62  33 198  33 210  34 55  34 150  34 210  35 36  35 56  35 57  35 127  35 153  36 39  36 59  36 88  36 127  37 38  37 58  37 196  37 251  38 41  38 60  38 195  38 251  39 40  39 59  39 87  39 88  40 44  40 64  40 87  40 167  41 42  41 60  41 195  41 205  42 45  42 63  42 144  42 205  43 54  43 75  43 192  43 249  44 64  44 167  44 245  45 63  45 144  45 204  46 71  46 78  47 69  47 76  48 67  48 72  49 70  49 79  50 65  50 68  51 66  51 73  52 53  52 77  53 77  53 157  53 158  54 75  56 57  56 153  56 203  61 62  62 198  65 66  65 68  65 161  65 216  66 73  66 177  66 216  67 68  67 72  67 118  67 215  68 161  68 215  69 70  69 76  69 140  69 200  70 79  70 140  70 199  71 72  71 78  71 119  71 139  72 118  72 119  73 74  73 105  73 177  74 105  75 76  75 190  75 249  76 190  76 200  77 78  77 114  77 158  78 114  78 139  79 199  80 81  80 82  80 206  80 212  80 237  80 238  80 239  81 82  81 112  81 162  81 163  81 197  81 206  82 112  82 113  82 168  82 212  83 84  83 85  83 110  83 135  83 165  83 173  84 85  84 97  84 135  85 95  85 97  85 110  86 87  86 88  86 101  86 155  86 167  86 184  86 194  87 88  87 167  88 101  88 127  89 90  89 91  89 114  89 157  89 158  89 201  90 91  90 114  90 133  90 134  90 149  90 165  91 128  91 129  91 149  91 166  91 201  92 93  92 94  92 159  92 182  92 207  92 253  93 94  93 253  93 254  94 159  94 202  95 96  95 97  95 110  95 111  95 233  96 97  96 233  98 99  98 100  98 124  99 100  99 106  99 107  99 124  100 107  100 160  101 126  101 127  101 155  101 183  102 103  102 104  102 116  102 117  102 179  102 236  103 104  103 235  103 236  104 116  104 171  105 177  105 248  106 107  106 108  106 124  106 189  106 244  107 108  107 151  107 160  107 170  108 136  108 166  108 170  108 189  109 110  109 111  109 118  109 120  109 161  109 215  110 111  110 120  110 133  110 165  111 161  111 230  111 233  112 113  112 121  112 145  112 197  113 145  113 168  113 169  113 193  113 213  114 134  114 139  114 158  115 116  115 117  115 122  115 123  115 125  115 164  115 256  116 117  116 164  116 171  117 125  117 130  117 179  118 119  118 120  118 215  119 120  119 133  119 134  119 139  120 133  121 122  121 123  121 145  121 156  121 197  121 255  122 123  122 247  122 255  122 256  123 125  123 156  123 182  124 135  124 244  125 130  125 132  125 182  126 127  126 153  126 183  126 203  126 218  126 225  127 153  128 129  128 184  128 194  128 201  128 211  129 136  129 137  129 166  129 184  130 131  130 132  130 179  131 132  131 152  131 178  131 179  131 185  131 250  132 152  132 182  132 208  133 134  133 165  134 139  135 173  135 244  136 137  136 138  136 151  136 166  136 170  137 138  137 154  137 155  137 184  138 151  138 154  138 219  140 199  140 200  140 220  140 229  141 142  141 143  141 187  141 229  142 143  142 180  142 187  142 188  142 246  143 180  143 240  144 204  144 205  144 217  144 223  144 234  145 156  145 193  145 207  146 147  146 148  146 214  147 148  147 181  148 175  148 181  148 214  148 231  149 165  149 166  149 173  149 189  150 209  150 210  150 222  150 224  150 242  151 160  151 170  152 175  152 176  152 208  152 231  152 250  153 203  154 155  154 183  154 218  154 219  155 183  155 184  156 182  156 207  157 158  157 201  157 211  157 245  159 176  159 182  159 202  159 208  161 215  161 216  161 230  162 163  162 191  162 206  162 221  162 234  163 197  163 221  163 252  163 255  164 171  164 172  164 256  165 173  166 189  167 194  167 211  167 245  168 169  168 212  168 232  168 242  169 213  169 232  169 254  171 172  171 174  172 174  172 241  172 247  172 256  173 189  173 244  174 240  174 241  175 176  175 181  175 231  175 243  176 202  176 208  176 243  177 216  177 230  177 248  178 179  178 185  178 235  178 236  179 236  180 240  180 241  180 246  181 243  182 207  182 208  183 218  184 194  185 214  185 250  186 187  186 188  186 191  186 226  186 227  186 228  187 188  187 220  187 227  187 229  188 191  188 221  188 246  189 244  190 200  190 220  190 226  190 227  190 249  191 221  191 223  191 228  191 234  192 204  192 223  192 226  192 228  192 249  193 207  193 213  193 253  194 211  195 205  195 217  195 237  195 238  195 251  196 209  196 222  196 237  196 239  196 251  197 255  198 210  198 224  200 220  201 211  202 243  203 225  204 223  205 217  206 217  206 234  206 238  207 253  209 222  210 224  211 245  212 222  212 239  212 242  213 253  213 254  214 231  214 250  216 230  217 234  217 238  218 219  218 225  220 227  220 229  221 246  221 252  222 239  222 242  223 228  223 234  224 232  224 242  226 227  226 228  226 249  230 233  230 248  231 250  232 242  233 248  235 236  237 238  237 239  237 251  240 241  241 246  241 247  246 247  246 252  247 252  247 255  247 256  252 255  253 254  </DataArray>
<DataArray  type="UInt32"  Name="offsets"  format="ascii">2 4 6 8 10 12 14 16 18 20 22 24 26 28 30 32 34 36 38 40 42 44 46 48 50 52 54 56 58 60 62 64 66 68 70 72 74 76 78 80 82 84 86 88 90 92 94 96 98 100 102 104 106 108 110 112 114 116 118 120 122 124 126 128 130 132 134 136 138 140 142 144 146 148 150 152 154 156 158 160 162 164 166 168 170 172 174 176 178 180 182 184 186 188 190 192 194 196 198 200 202 204 206 208 210 212 214 216 218 220 222 224 226 228 230 232 234 236 238 240 242 244 246 248 250 252 254 256 258 260 262 264 266 268 270 272 274 276 278 280 282 284 286 288 290 292 294 296 298 300 302 304 306 308 310 312 314 316 318 320 322 324 326 328 330 332 334 336 338 340 342 344 346 348 350 352 354 356 358 360 362 364 366 368 370 372 374 376 378 380 382 384 386 388 390 392 394 396 398 400 402 404 406 408 410 412 414 416 418 420 422 424 426 428 430 432 434 436 438 440 442 444 446 448 450 452 454 456 458 460 462 464 466 468 470 472 474 476 478 480 482 484 486 488 490 492 494 496 498 500 502 504 506 508 510 512 514 516 518 520 522 524 526 528 530 532 534 536 538 540 542 544 546 548 550 552 554 556 558 560 562 564 566 568 570 572 574 576 578 580 582 584 586 588 590 592 594 596 598 600 602 604 606 608 610 612 614 616 618 620 622 624 626 628 630 632 634 636 638 640 642 644 646 648 650 652 654 656 658 660 662 664 666 668 670 672 674 676 678 680 682 684 686 688 690 692 694 696 698 700 702 704 706 708 710 712 714 716 718 720 722 724 726 728 730 732 734 736 738 740 742 744 746 748 750 752 754 756 758 760 762 764 766 768 770 772 774 776 778 780 782 784 786 788 790 792 794 796 798 800 802 804 806 808 810 812 814 816 818 820 822 824 826 828 830 832 834 836 838 840 842 844 846 848 850 852 854 856 858 860 862 864 866 868 870 872 874 876 878 880 882 884 886 888 890 892 894 896 898 900 902 904 906 908 910 912 914 916 918 920 922 924 926 928 930 932 934 936 938 940 942 944 946 948 950 952 954 956 958 960 962 964 966 968 970 972 974 976 978 980 982 984 986 988 990 992 994 996 998 1000 1002 1004 1006 1008 1010 1012 1014 1016 1018 1020 1022 1024 1026 1028 1030 1032 1034 1036 1038 1040 1042 1044 1046 1048 1050 1052 1054 1056 1058 1060 1062 1064 1066 1068 1070 1072 1074 1076 1078 1080 1082 1084 1086 1088 1090 1092 1094 1096 1098 1100 1102 1104 1106 1108 1110 1112 1114 1116 1118 1120 1122 1124 1126 1128 1130 1132 1134 1136 1138 1140 1142 1144 1146 1148 1150 1152 1154 1156 1158 1160 1162 1164 1166 1168 1170 1172 1174 1176 1178 1180 1182 1184 1186 1188 1190 1192 1194 1196 1198 1200 1202 1204 1206 1208 1210 1212 1214 1216 1218 1220 1222 1224 1226 1228 1230 1232 1234 1236 1238 1240 1242 1244 1246 1248 1250 1252 1254 1256 1258 1260 1262 1264 1266 1268 1270 1272 1274 1276 1278 1280 1282 1284 1286 1288 1290 1292 1294 1296 1298 1300 1302 1304 1306 1308 1310 1312 1314 1316 1318 1320 1322 1324 1326 1328 1330 1332 1334 1336 1338 1340 1342 1344 1346 1348 1350 1352 1354 1356 1358 1360 1362 1364 1366 1368 1370 1372 1374 1376 1378 1380 1382 1384 1386 1388 1390 1392 1394 1396 1398 1400 1402 1404 1406 1408 1410 1412 1414 1416 1418 1420 1422 1424 1426 1428 1430 1432 1434 </DataArray>
<DataArray  type="UInt8"  Name="types"  format="ascii">3 3 3 3 3 3 3 3 3 3 3 3 3 3 3 3 3 3 3 3 3 3 3 3 3 3 3 3 3 3 3 3 3 3 3 3 3 3 3 3 3 3 3 3 3 3 3 3 3 3 3 3 3 3 3 3 3 3 3 3 3 3 3 3 3 3 3 3 3 3 3 3 3 3 3 3 3 3 3 3 3 3 3 3 3 3 3 3 3 3 3 3 3 3 3 3 3 3 3 3 3 3 3 3 3 3 3 3 3 3 3 3 3 3 3 3 3 3 3 3 3 3 3 3 3 3 3 3 3 3 3 3 3 3 3 3 3 3 3 3 3 3 3 3 3 3 3 3 3 3 3 3 3 3 3 3 3 3 3 3 3 3 3 3 3 3 3 3 3 3 3 3 3 3 3 3 3 3 3 3 3 3 3 3 3 3 3 3 3 3 3 3 3 3 3 3 3 3 3 3 3 3 3 3 3 3 3 3 3 3 3 3 3 3 3 3 3 3 3 3 3 3 3 3 3 3 3 3 3 3 3 3 3 3 3 3 3 3 3 3 3 3 3 3 3 3 3 3 3 3 3 3 3 3 3 3 3 3 3 3 3 3 3 3 3 3 3 3 3 3 3 3 3 3 3 3 3 3 3 3 3 3 3 3 3 3 3 3 3 3 3 3 3 3 3 3 3 3 3 3 3 3 3 3 3 3 3 3 3 3 3 3 3 3 3 3 3 3 3 3 3 3 3 3 3 3 3 3 3 3 3 3 3 3 3 3 3 3 3 3 3 3 3 3 3 3 3 3 3 3 3 3 3 3 3 3 3 3 3 3 3 3 3 3 3 3 3 3 3 3 3 3 3 3 3 3 3 3 3 3 3 3 3 3 3 3 3 3 3 3 3 3 3 3 3 3 3 3 3 3 3 3 3 3 3 3 3 3 3 3 3 3 3 3 3 3 3 3 3 3 3 3 3 3 3 3 3 3 3 3 3 3 3 3 3 3 3 3 3 3 3 3 3 3 3 3 3 3 3 3 3 3 3 3 3 3 3 3 3 3 3 3 3 3 3 3 3 3 3 3 3 3 3 3 3 3 3 3 3 3 3 3 3 3 3 3 3 3 3 3 3 3 3 3 3 3 3 3 3 3 3 3 3 3 3 3 3 3 3 3 3 3 3 3 3 3 3 3 3 3 3 3 3 3 3 3 3 3 3 3 3 3 3 3 3 3 3 3 3 3 3 3 3 3 3 3 3 3 3 3 3 3 3 3 3 3 3 3 3 3 3 3 3 3 3 3 3 3 3 3 3 3 3 3 3 3 3 3 3 3 3 3 3 3 3 3 3 3 3 3 3 3 3 3 3 3 3 3 3 3 3 3 3 3 3 3 3 3 3 3 3 3 3 3 3 3 3 3 3 3 3 3 3 3 3 3 3 3 3 3 3 3 3 3 3 3 3 3 3 3 3 3 3 3 3 3 3 3 3 3 3 3 3 3 3 3 3 3 3 3 3 3 3 3 3 3 3 3 3 3 3 3 3 3 3 3 3 3 3 3 3 3 3 3 3 3 3 3 3 3 3 3 3 3 3 3 3 3 3 3 3 3 3 3 3 3 3 3 3 3 3 3 3 3 3 3 3 </DataArray>
</Cells>
<CellData  Scalars="f">
<DataArray  type="Float64"  Name="f"  format="ascii">0 0 0 5 5 0 0 0 0 0 0 0 0 0 0 0 0 0 0 0 0 0 5 5 0 0 0 0 0 0 0 0 0 0 0 0 0 0 0 0 0 0 0 0 0 0 0 0 0 0 0 0 0 0 0 0 0 0 0 0 0 0 0 0 0 0 0 0 0 0 0 0 0 0 0 0 0 0 0 0 0 0 0 0 0 0 0 0 0 0 0 0 0 0 0 0 0 0 0 0 0 0 0 0 0 0 0 0 0 0 0 0 0 0 0 0 0 0 0 0 0 0 0 0 0 0 0 0 0 0 0 0 0 0 0 0 0 0 0 0 0 5 5 0 0 0 5 0 0 0 5 0 5 0 0 0 0 0 5 5 0 0 0 5 0 0 0 5 0 0 0 5 0 0 0 5 0 0 0 5 0 0 0 5 0 0 0 5 0 0 0 0 5 0 0 0 0 0 0 0 0 0 0 0 0 0 0 0 0 0 0 0 0 0 0 5 0 0 0 0 0 0 0 0 5 5 0 0 5 0 0 5 5 0 0 0 0 5 5 0 0 5 0 0 5 5 0 0 0 0 5 0 0 0 5 0 0 0 0 5 0 0 0 0 0 0 0 0 0 0 0 0 0 0 0 0 0 0 0 0 0 0 0 0 0 0 0 0 0 0 0 0 0 0 0 0 0 0 0 0 0 0 0 0 0 0 0 0 0 0 0 0 0 0 0 0 0 0 0 0 0 0 0 0 0 0 0 0 0 0 0 0 0 0 0 0 0 0 0 0 0 0 0 0 0 0 0 0 0 0 0 0 0 0 0 0 0 0 0 0 0 0 0 0 0 0 0 0 0 0 0 0 0 0 0 0 0 0 0 0 0 0 0 0 0 0 0 0 0 0 0 0 0 0 0 0 0 0 0 0 0 0 0 0 0 0 0 0 0 0 0 0 0 0 0 0 0 0 0 0 0 0 0 0 0 0 0 0 0 0 0 0 0 0 0 0 0 0 0 0 0 0 0 0 0 0 0 0 0 0 0 0 0 0 0 0 0 0 0 0 0 0 0 0 0 0 0 0 0 0 0 0 0 0 0 0 0 0 0 0 0 0 0 0 0 0 0 0 0 0 0 0 0 0 0 0 0 0 0 0 0 0 0 0 0 0 0 0 0 0 0 0 0 2 0 0 0 0 0 0 0 0 0 0 0 0 0 0 0 0 0 0 0 0 0 0 0 0 0 0 0 0 0 0 0 0 0 0 0 0 0 0 0 0 0 0 0 0 0 0 0 0 0 0 0 0 0 0 0 0 0 0 0 0 0 0 0 0 0 0 0 0 0 0 0 0 0 0 0 0 0 0 0 0 0 0 0 0 0 0 0 2 2 0 0 0 0 0 0 0 0 0 0 2 0 0 0 0 0 0 0 0 0 0 0 0 0 0 0 0 0 0 0 0 0 0 0 0 0 0 0 0 0 0 0 0 0 0 0 0 0 0 0 0 0 0 0 0 0 0 0 0 0 0 0 0 0 0 0 0 0 0 0 0 0 0 0 0 0 0 0 0 0 0 0 0 0 0 0 0 0 0 0 0 0 0 0 0 0 0 0 0 0 0 0 0 0 0 0 0 0 0 0 0 0 0 0 </DataArray>
</CellData>
</Piece>
</UnstructuredGrid>
</VTKFile>