<?xml version="1.0"?>
<VTKFile type="UnstructuredGrid"  version="0.1"  >
<UnstructuredGrid>
<Piece  NumberOfPoints="718" NumberOfCells="2048">
<Points>
<DataArray  type="Float64"  NumberOfComponents="3"  format="ascii">0.3535460261755617 0.19 0  0.3528922713220932 0.2000185703532356 0  0.3590076176283495 0.196411355804271 0  0.3012679105156187 0.19 0  0.3006558810093873 0.1999966199048318 0  0.3066757059912147 0.1964092924317024 0  0.3473758401723931 0.1961819304478349 0  0.2950977245127906 0.1961819304477774 0  0.3535460261749672 0.21 0  0.3473758401724931 0.2038180695522752 0  0.301267910515333 0.21 0  0.2950977245128307 0.2038180695522663 0  0.3590471196690275 0.2036304442587945 0  0.3067669986803285 0.203627750582736 0  0.2607803159922026 0.2000727136295815 0  0.2677053789419034 0.1964246479135325 0  0.267698176732111 0.2039977513680092 0  0.2751288526855082 0.20000000000002 0  0.2603913042767976 0.1945999920783741 0  0.2639263993299336 0.19 0  0.25 0.2 0  0.2497468076502589 0.2050254481002335 0  0.2550657455369551 0.2034088125358657 0  0.3650630746574081 0.199866017807523 0  0.3722167817676917 0.2029084173136195 0  0.372246743208829 0.1959123236376545 0  0.3274069683451451 0.2000000000000796 0  0.3348752705822316 0.202908417313609 0  0.3347912413592433 0.1959225448935183 0  0.3127789816668748 0.1998657885438805 0  0.3199386661080599 0.202908417313604 0  0.3199680582793816 0.1959123018030061 0  0.2825131256993216 0.2035478995978015 0  0.2825051229162361 0.1959834479681729 0  0.2894621222999649 0.1998691686390484 0  0.3417402379596385 0.1998691686391011 0  0.2713947015670686 0.19 0  0.2788630038040554 0.21 0  0.2863313060411479 0.21 0  0.3162045149895234 0.21 0  0.3236728172265972 0.21 0  0.3311411194636928 0.21 0  0.3386094217007701 0.21 0  0.3460777239384295 0.19 0  0.2937996082784807 0.19 0  0.2937996082782405 0.21 0  0.3460777239378666 0.21 0  0.2601812407614425 0.2056861609747042 0  0.3087362127527544 0.19 0  0.361014328412667 0.19 0  0.2497468076502614 0.1949745518997913 0  0.2548908499171161 0.1966940311614271 0  0.2751288526855081 0.205697194228819 0  0.3647484795312433 0.1943028057712484 0  0.3274069683455914 0.1943028057712305 0  0.3124703638713219 0.1943028057712193 0  0.2751288526856362 0.1943028057711959 0  0.3610143284120516 0.21 0  0.3087362127524279 0.21 0  0.2895549462647731 0.1944069323160756 0  0.341834128962283 0.1943988119061815 0  0.3684826306491596 0.21 0  0.3650260178642469 0.2054197153269502 0  0.3274069683451451 0.2056971942288527 0  0.312746837849954 0.2054193256016435 0  0.2564580970927985 0.19 0  0.2525889069107169 0.1926036384190297 0  0.341845332858566 0.2054104280253135 0  0.2897864851748124 0.2055930218738881 0  0.25645809709277 0.21 0  0.25261805618068 0.2074135021971937 0  0.2639263993298655 0.21 0  0.271394701566961 0.21 0  0.3759509328869369 0.19 0  0.3684826306498175 0.19 0  0.3386094217012945 0.19 0  0.3311411194641595 0.19 0  0.3236728172270245 0.19 0  0.3162045149898895 0.19 0  0.2863313060413428 0.19 0  0.2788630038042048 0.19 0  0.2489897948556636 0.19 0  0.2489897948556636 0.21 0  0.3411792619035872 0.1007807988883264 0  0.3223547013037051 0.0811661342953541 0  0.3444094697767079 0.06991525711561337 0  0.3605639237643 0.2793006923612668 0  0.3754967205959606 0.2925860795314694 0  0.3727949441736886 0.2687069143756727 0  0.1123698019379044 0.2058991360802581 0  0.1106531987626008 0.1894643335925837 0  0.09638298985168356 0.2000713960717276 0  0.0534241021414831 0.2075428856341382 0  0.07538638723190919 0.1915913195394167 0  0.06726459509928774 0.2147740778951952 0  0.3265012756581966 0.2702065959162994 0  0.3425185051143286 0.277559411241074 0  0.3236350239119228 0.2946877384927431 0  0.3871536388992142 0.2768042805511501 0  0.05117116986370451 0.1453484941029572 0  0.028576868323113 0.1257840022252348 0  0.02526469030969892 0.1581631046774197 0  0.2731077660562961 0.05508844879223635 0  0.2987388406956894 0.03154986994134981 0  0.2542757755299287 0.02753888901404131 0  0.3578728954606922 0.1299960675997348 0  0.3428550702839791 0.1207298864326248 0  0.3606088315611094 0.1037277084934985 0  0.3655464778159961 0.1466879707354811 0  0.3738358170836363 0.1565872175614931 0  0.383930166391577 0.149077512173999 0  0.1643783325218296 0.1320455275536215 0  0.1492552100538899 0.1320415135830948 0  0.1603037058708973 0.1432581839427922 0  0.07781603907681035 0.1514291067465787 0  0.06748599119092742 0.1295390004813558 0  0.2286913662688903 0.3133959500822503 0  0.2457579136251883 0.3036253283210157 0  0.2370120387482942 0.3305347050441392 0  0.1133943915886014 0.3302098901172357 0  0.1085927601152855 0.3576703429582752 0  0.1291050229147523 0.3369598757086243 0  0.1876570762350594 0.2701429686523801 0  0.1759534499456636 0.268744809012302 0  0.1862475166430347 0.2806184243256064 0  0.2767628315692916 0.1210799475693868 0  0.260361447596534 0.1229759280558447 0  0.2739511166480145 0.1012903426171407 0  0.228090483983057 0.1360461642521307 0  0.2156274396954392 0.1428329882811742 0  0.2231096629876289 0.1473860403476538 0  0.3642910294882131 0.08514217524358583 0  0.04799687037553593 0.1900185470502504 0  0.1704873609912336 0.2583583661241701 0  0.1801707401936674 0.2578452677740249 0  0 0.3514285714286952 0  0.03215830272795324 0.3311110896359255 0  0.02400550655420258 0.3538155845945724 0  0.09145562669711395 0.175668370620234 0  0.09635163646555502 0.1596076048115481 0  0.07646146193815946 0.1687797331838 0  0 0.05857142857161107 0  0 0.02928571428580012 0  0.02797905238142366 0.04239836249189064 0  0.3009672322348927 0.299853464475565 0  0.2860802002973516 0.3223921533999551 0  0.2799076752212695 0.2955946972235118 0  0.1521457199348437 0.2144902684393899 0  0.1547844879126531 0.221343792228163 0  0.1460074103989341 0.2155962236814484 0  0.06224717571675014 0.16049953533406 0  0.2004289920815778 0.2885787263743592 0  0.2083656065158181 0.2774025780460683 0  0.2175887234644184 0.2860477873464338 0  0 0.1464285714289574 0  0.3656958473839882 0.2539056765427533 0  0.3826544750917113 0.2574975795502557 0  0.3742999258550256 0.2455889756585279 0  0.1340109150974826 0.1326286508362426 0  0.1230381620938855 0.1450531231009962 0  0.1371388187715824 0.1487519394947238 0  0.09921229729781815 0.216694589313852 0  0.1987596795720009 0.2706417532988148 0  0 0.3221428571430699 0  0.1502170850938848 0.1478553695050668 0  0.1022962111550141 0.273832470550381 0  0.1121786756446853 0.257597694764058 0  0.1185619469878228 0.2730177051871591 0  0.09898678642452967 0.1862327908870533 0  0.1843109002236991 0.1108412192449581 0  0.1663792634974669 0.1129031590983526 0  0.1730791557496665 0.09449610930120438 0  0.05939492550527375 0.3149957962361826 0  0.03411173555592004 0.3013214948275056 0  0.1949745518995776 0.2497468076502398 0  0.202315810036185 0.2499463414463592 0  0.1988936168129591 0.2591743361304991 0  0.1497148406801674 0.1059683048239758 0  0.1319376419904144 0.1078314072630599 0  0.1422873301607691 0.09099989767432708 0  0.3684404229859068 0.05879875930223131 0  0.3866266297147894 0.03466711669742863 0  0.3886771468199661 0.07134613381357163 0  0.1503920612246686 0.252658552798053 0  0.1407371787724462 0.2442700623456801 0  0.1431093770171943 0.2599228455937608 0  0.09191660917863548 0.3399083220637153 0  0.1291780217515827 0.2400382025520897 0  0.1325512871714925 0.2548933203634119 0  0.05400790163887537 0.1101452894911868 0  0.03212895351398194 0.09444182905744057 0  0.3119706532029335 0.280741853274607 0  0.1613699074131162 0.2874965309748423 0  0.1497954449456231 0.3068853213507886 0  0.1704962809759384 0.2989815459796012 0  0.1292063859387973 0.160179270973018 0  0.29813678539982 0.236276478175315 0  0.3103932646053297 0.2435733951751842 0  0.2950877208402625 0.2480324151406079 0  0.2571393426600714 0.09909224058133874 0  0.2802365149396702 0.2293267412254819 0  0.2888197773682229 0.2217624015035644 0  0.2799011483571476 0.2201540359780956 0  0.1273239957535623 0.41 0  0.1550887940203835 0.3759695678273732 0  0.1305531867707806 0.3723894882772687 0  0.2328041563607919 0.2914013345123573 0  0.2145757352600842 0.3012314566270872 0  0.3718691980658081 0.1185113859721947 0  0.06140001986584975 0.41 0  0.08484979611354741 0.3801877867628078 0  0.05922009696123734 0.3774661510110062 0  0.1314207338941352 0.2277905748945162 0  0.1208839583881551 0.2181173442085023 0  0.1226326835593179 0.232510509637589 0  0.2199699516855607 0.2730509421907208 0  0.2088779690661671 0.2650057074514391 0  0.2335552553807713 0.3548019770067952 0  0.216380800632318 0.3798697230577418 0  0.2537725505472335 0.3777585525832137 0  0.09377624077128965 0.41 0  0.09380266644077194 0.2576101652245613 0  0.3141745521466497 0.41 0  0.3098481778850767 0.3708824362367037 0  0.2803555148413351 0.3762695151888899 0  0.3830052789765099 0.2465504596596307 0  0.1712191068054211 0.2792458170307043 0  0.2798983539554935 0.1725715317274126 0  0.2887875715604008 0.1784526411902859 0  0.2798265752054099 0.1801908109055989 0  0.3750556316230105 0.1339831864103567 0  0.1315669208937715 0.2153401624373302 0  0.08319468457824891 0.2132940804249223 0  0.05506284017382649 0.2425906156552861 0  0.03234799839792719 0.2322323714096635 0  0.03317213267821684 0.2576605437337542 0  0.235428184091502 0 0  0.2269089833956681 0.04173965335049001 0  0.2054867233040618 0.02496467843107029 0  0.0655461589766832 0.3354809920423228 0  0.3938502830802056 0.3095497484347601 0  0.3641563190507836 0.3179653487982807 0  0.3934922780344484 0.3350540779420794 0  0.132972307375135 0.2702075053542861 0  0.1310410255455362 0.2846992571580754 0  0.3236197880522565 0.342390365483443 0  0.3436434970543172 0.3743236175823911 0  0.2607466101664424 0.2266930975791233 0  0.271385042995999 0.2220255791858506 0  0.2640363109795177 0.2179944263838653 0  0.1877417105387872 0.1515259415822739 0  0.1807733240461124 0.153844448527136 0  0.1810237202008071 0.1443964565620037 0  0.05202618668915951 0.3533574174069209 0  0.0341778808147269 0.3756898840960821 0  0.3418128
[...]
<CellData  Scalars="f">
<DataArray  type="Float64"  Name="f"  format="ascii">0 0 0 1 1 0 0 0 0 0 0 0 0 0 0 0 0 0 0 1 1 0 0 0 0 0 0 0 0 0 0 0 0 0 0 0 0 0 0 0 0 0 1 1 0 0 0 0 0 0 0 1 1 0 0 0 0 0 0 0 0 0 0 0 0 0 0 0 0 0 0 0 0 0 0 0 0 0 0 0 0 0 0 0 0 0 0 0 1 1 0 0 0 0 0 0 0 0 0 0 0 0 0 0 0 0 0 0 0 0 0 0 0 0 0 0 0 0 0 0 0 0 0 0 0 0 0 0 0 0 0 0 0 0 0 0 0 0 0 0 0 0 0 0 0 0 0 0 0 0 0 0 0 0 0 0 0 0 0 0 1 0 0 1 0 1 0 0 1 0 0 0 1 1 0 0 0 1 0 0 0 1 0 0 0 1 0 0 0 0 1 0 0 0 1 0 0 0 0 0 0 0 0 0 0 0 1 0 0 0 1 0 0 0 0 0 0 0 0 0 0 0 0 0 1 0 0 0 0 0 0 0 0 0 0 0 0 1 0 0 0 0 1 1 0 0 0 1 0 0 0 0 0 1 0 1 0 0 0 1 0 0 1 0 0 1 0 0 0 0 1 0 0 0 0 0 0 0 0 0 0 0 0 0 0 0 0 0 0 0 0 0 0 0 0 0 0 0 0 0 0 0 0 0 0 0 0 0 0 0 0 0 0 0 0 0 0 0 0 0 0 0 0 0 0 0 0 0 0 0 0 0 0 0 0 0 0 0 0 0 0 0 0 0 0 0 0 0 0 0 0 0 0 0 0 0 0 0 0 0 0 0 0 0 0 0 0 0 0 0 0 0 0 0 0 0 0 0 0 0 0 0 0 0 0 0 0 0 0 0 0 0 0 0 0 0 0 0 0 0 0 0 0 0 0 0 0 0 0 0 0 0 0 0 0 0 0 0 0 0 0 0 0 0 0 0 0 0 0 0 0 0 0 0 0 0 0 0 0 0 0 0 0 0 0 0 0 0 0 0 0 0 0 0 0 0 0 0 0 0 0 0 0 0 0 0 0 0 0 0 0 0 0 0 0 0 0 0 0 0 0 0 0 0 0 0 0 0 0 0 0 0 0 0 0 0 0 0 0 0 0 0 0 0 0 0 0 0 0 0 0 0 0 0 0 0 0 0 0 0 0 0 0 0 0 0 0 0 0 0 0 0 0 0 0 0 0 0 0 0 0 0 0 0 0 0 0 0 0 0 0 0 0 0 0 0 0 0 0 0 0 0 0 0 0 0 0 0 0 0 0 0 0 0 0 0 0 0 0 0 0 0 0 0 0 0 0 0 0 0 0 0 0 0 0 0 0 0 0 0 0 0 0 0 0 0 0 0 0 0 0 0 0 0 0 0 0 0 0 0 0 0 0 0 0 0 0 0 0 0 0 0 0 0 0 0 0 0 0 0 0 0 0 0 0 0 0 0 0 0 0 0 0 0 0 0 0 0 0 0 0 0 0 0 0 0 0 0 0 0 0 0 0 0 0 0 0 0 0 0 0 0 0 0 0 0 0 0 0 0 0 0 0 0 0 0 0 0 0 0 0 0 0 0 0 0 0 0 0 0 0 0 0 0 0 0 0 0 0 0 0 0 0 0 0 0 0 0 0 0 0 0 0 0 0 0 0 0 0 0 0 0 0 0 0 0 0 0 0 0 0 0 0 0 0 0 0 0 0 0 0 0 0 0 0 0 0 0 0 0 0 0 0 0 0 0 0 0 0 0 0 0 0 0 0 0 0 0 0 0 0 0 0 0 0 0 0 0 0 0 0 0 0 0 0 0 0 0 0 0 0 0 0 0 0 0 0 0 0 0 0 0 0 0 0 0 0 0 0 0 0 0 0 0 0 0 0 0 0 0 0 0 0 0 0 0 0 0 0 0 0 0 0 0 0 0 0 0 0 0 0 0 0 0 0 0 0 0 0 0 0 0 0 0 0 0 0 0 0 0 0 0 0 0 0 0 0 0 0 0 0 0 0 0 0 0 0 0 0 0 0 0 0 0 0 0 0 0 0 0 0 0 0 0 0 0 0 0 0 0 0 0 0 0 0 0 0 0 0 0 0 0 0 0 0 0 0 0 0 0 0 0 0 0 0 0 0 0 0 0 0 0 0 0 0 0 0 0 0 0 0 0 0 0 0 0 0 0 0 0 0 0 0 0 0 0 0 0 0 0 0 0 0 0 0 0 0 0 0 0 0 0 0 0 0 0 0 0 0 0 0 0 0 0 0 0 0 0 0 0 0 0 0 0 0 0 0 0 0 0 0 0 0 0 0 0 0 0 0 0 0 0 0 0 0 0 0 0 0 0 0 0 0 0 0 0 0 0 0 0 0 0 0 0 0 0 0 0 0 0 0 0 0 0 0 0 0 0 0 0 0 0 0 0 0 0 0 0 0 0 0 0 0 0 0 0 0 0 0 0 0 0 0 0 0 0 0 0 0 0 0 0 0 0 0 0 0 0 0 0 0 0 0 0 0 0 0 0 0 0 0 0 0 0 0 0 0 0 0 0 0 0 0 0 0 0 0 0 0 0 0 0 0 0 0 0 0 0 0 0 0 0 0 0 0 0 0 0 0 0 0 0 0 0 0 0 0 0 0 0 0 0 0 0 0 0 0 0 0 0 0 0 0 0 0 0 0 0 0 0 0 0 0 0 0 0 0 0 0 0 0 0 0 0 0 0 0 0 0 0 0 0 0 0 0 0 0 0 0 0 0 0 0 0 0 0 0 0 0 0 0 0 0 0 0 0 0 0 0 0 0 0 0 0 0 0 0 0 0 0 0 0 0 0 0 0 0 0 0 0 0 0 0 0 0 0 0 0 0 0 0 0 0 0 0 0 0 0 0 0 0 0 0 0 0 0 0 0 0 0 0 0 0 0 0 0 0 0 0 0 0 0 0 0 0 0 0 0 0 0 0 0 0 0 0 0 0 0 0 0 0 0 0 0 0 0 0 0 0 0 0 0 0 0 0 0 0 0 0 0 0 0 0 0 0 0 0 0 0 0 0 0 0 0 0 0 0 0 0 0 0 0 0 0 0 0 0 0 0 0 0 0 0 0 0 0 0 0 0 0 0 0 0 0 0 0 0 0 0 0 0 0 0 0 0 0 0 0 0 0 0 0 0 0 0 0 0 0 0 0 0 0 0 0 0 0 0 0 0 0 0 0 0 0 0 0 0 0 0 0 0 0 0 0 0 0 0 0 0 0 0 0 0 0 0 0 0 0 0 0 0 0 0 0 0 0 0 0 0 0 0 0 0 0 0 0 0 0 0 0 0 0 0 0 0 0 0 0 0 0 0 0 0 0 0 0 0 0 0 0 0 0 0 0 0 0 0 0 0 0 0 0 0 0 0 0 0 0 0 0 0 0 0 0 0 0 0 0 0 0 0 0 0 0 0 0 0 0 0 0 0 0 0 0 0 0 0 0 0 0 0 0 0 0 0 0 0 0 0 0 0 0 0 0 0 0 0 0 0 0 0 0 0 0 0 0 0 0 0 0 0 0 0 0 0 0 0 0 0 0 0 0 0 0 0 0 0 0 0 0 0 0 0 0 0 0 0 0 0 0 0 0 0 0 0 0 0 0 0 0 0 0 0 0 0 0 0 0 0 0 0 0 0 0 0 0 0 0 0 0 0 0 0 0 0 0 0 0 0 0 0 0 0 0 0 0 0 0 0 0 0 0 0 0 0 0 0 0 0 0 0 0 0 0 0 0 0 0 0 0 0 0 0 0 0 0 0 0 0 0 0 0 0 0 0 0 0 0 0 0 0 0 0 0 0 0 0 0 0 0 0 0 0 0 0 0 0 0 0 0 0 0 0 0 0 0 0 0 0 0 0 0 0 0 0 0 0 0 0 0 0 0 0 0 0 0 0 0 0 0 0 0 0 0 0 0 0 0 0 0 0 0 0 0 0 0 0 0 0 0 0 0 0 0 0 0 0 0 0 0 0 0 0 0 0 0 0 0 0 0 0 0 0 0 0 0 0 0 0 0 0 0 0 0 0 0 0 0 0 0 0 0 0 0 0 0 0 0 0 0 0 0 0 0 0 0 0 0 0 0 0 0 0 0 0 0 0 0 0 0 0 0 0 0 0 0 0 0 0 0 0 0 0 0 0 0 0 0 0 0 0 0 0 0 0 0 0 0 0 0 0 0 0 0 0 0 0 0 0 0 0 0 0 0 0 0 0 0 0 0 0 0 0 0 0 0 0 0 0 0 0 0 0 0 0 0 0 0 0 0 0 0 0 0 0 0 0 0 0 0 0 0 0 0 0 0 0 0 0 0 0 0 0 0 0 0 0 0 0 0 0 0 0 0 0 0 0 0 0 0 0 0 0 0 0 0 0 0 0 0 0 0 0 0 0 0 0 0 0 0 0 0 0 0 0 0 0 0 0 0 0 0 0 0 0 0 0 0 0 0 0 0 0 0 0 0 0 0 0 0 0 0 0 0 0 0 0 0 0 0 0 0 0 0 0 0 0 0 0 0 0 0 0 0 0 0 0 0 0 0 0 0 0 0 0 0 0 0 0 0 0 0 0 0 0 0 0 0 0 0 0 0 0 0 0 0 0 0 </DataArray>
</CellData>
</Piece>
</UnstructuredGrid>
</VTKFile>