<?xml version="1.0"?>
<VTKFile type="UnstructuredGrid"  version="0.1"  >
<UnstructuredGrid>
<Piece  NumberOfPoints="3848" NumberOfCells="6616">
<Points>
<DataArray  type="Float64"  NumberOfComponents="3"  format="ascii">0 0 0  0 0.41 0  2.5 0.41 0  2.5 0 0  0.2 0.15 0  0.15 0.2 0  0.6 0.19 0  0.6 0.21 0  0.2489897949 0.21 0  0.2489897949 0.19 0  0.2 0.25 0  0 0.3280000000001975 0  0 0.2460000000004372 0  0 0.1640000000004437 0  0 0.08200000000021695 0  0.09999999999991693 0 0  0.1999999999998321 0 0  0.2999999999997583 0 0  0.399999999999498 0 0  0.4999999999992062 0 0  0.5999999999989143 0 0  0.6999999999986224 0 0  0.7999999999983305 0 0  0.8999999999980386 0 0  0.9999999999977555 0 0  1.099999999997873 0 0  1.199999999998025 0 0  1.299999999998176 0 0  1.399999999998328 0 0  1.499999999998481 0 0  1.599999999998633 0 0  1.699999999998784 0 0  1.799999999998937 0 0  1.899999999999088 0 0  1.99999999999924 0 0  2.099999999999392 0 0  2.199999999999544 0 0  2.299999999999697 0 0  2.399999999999848 0 0  2.5 0.08199999999981657 0  2.5 0.1639999999995688 0  2.5 0.2459999999995603 0  2.5 0.327999999999785 0  2.4 0.41 0  2.3 0.41 0  2.199999999999999 0.41 0  2.099999999999999 0.41 0  1.999999999999999 0.41 0  1.899999999999999 0.41 0  1.799999999999999 0.41 0  1.699999999999999 0.41 0  1.599999999999999 0.41 0  1.499999999999999 0.41 0  1.399999999999999 0.41 0  1.299999999999999 0.41 0  1.2 0.41 0  1.1 0.41 0  0.9999999999999998 0.41 0  0.8999999999999997 0.41 0  0.7999999999999996 0.41 0  0.6999999999999995 0.41 0  0.5999999999999996 0.41 0  0.4999999999999996 0.41 0  0.3999999999999999 0.41 0  0.2999999999999998 0.41 0  0.1999999999999997 0.41 0  0.09999999999999964 0.41 0  0.1500098835114965 0.2009941093832413 0  0.1500395301386344 0.2019878257548337 0  0.1500889281609022 0.2029807562584728 0  0.1501580580492639 0.2039725083485686 0  0.1502468924738768 0.2049626899453853 0  0.1503553963148986 0.2059509095900723 0  0.1504835266763718 0.2069367765994313 0  0.15063123290318 0.20791990122034 0  0.1507984566010763 0.2088998947838628 0  0.1509851316597647 0.2098763698588806 0  0.1511911842790431 0.2108489404052962 0  0.1514165329979753 0.2118172219266281 0  0.1516610887270949 0.2127808316220114 0  0.1519247547836244 0.2137393885375354 0  0.1522074269297058 0.2146925137168762 0  0.1525089934136035 0.215639830351089 0  0.1528293350138845 0.2165809639275784 0  0.153168325086553 0.2175155423781629 0  0.1535258296151179 0.2184431962261683 0  0.1539017072635775 0.219363558732503 0  0.1542958094322874 0.2202762660406251 0  0.1547079803167121 0.2211809573204014 0  0.1551380569690258 0.222077274910768 0  0.1555858693625281 0.2229648644611193 0  0.1560512404588595 0.2238433750713906 0  0.1565339862780008 0.2247124594308009 0  0.1570339159709949 0.2255717739551341 0  0.157550831895406 0.2264209789225896 0  0.1580845296934595 0.2272597386080923 0  0.1586347983728158 0.2280877214159924 0  0.1592014203900114 0.2289046000111994 0  0.159784171736428 0.2297100514485398 0  0.1603828220268891 0.2305037573004845 0  0.1609971345907052 0.2312854037829854 0  0.1616268665652714 0.2320546818795713 0  0.1622717689920531 0.2328112874634781 0  0.162931586915025 0.2335549214179031 0  0.1636060594814696 0.2342852897542615 0  0.1642949200451001 0.2350021037284076 0  0.1649978962714654 0.2357050799547754 0  0.1657147102456136 0.2363939405184128 0  0.1664450785819805 0.2370684130848696 0  0.1671887125364139 0.237728231007853 0  0.1679453181203199 0.2383731334346377 0  0.1687145962169009 0.2390028654092036 0  0.1694962426994068 0.2396171779730272 0  0.1702899485513536 0.2402158282634932 0  0.1710953999886983 0.240798579609916 0  0.1719122785839061 0.2413652016271153 0  0.1727402613918134 0.2419154703064792 0  0.1735790210773134 0.2424491681045336 0  0.1744282260447669 0.2429660840289462 0  0.1752875405690953 0.2434660137219402 0  0.1761566249285019 0.2439487595410822 0  0.1770351355387834 0.2444141306374216 0  0.1779227250891411 0.2448619430309295 0  0.1788190426795059 0.2452920196832445 0  0.1797237339592739 0.2457041905676679 0  0.1806364412673951 0.2460982927363797 0  0.181556803773729 0.2464741703848413 0  0.1824844576217376 0.2468316749134098 0  0.1834190360723346 0.247170664986085 0  0.1843601696488287 0.2474910065863694 0  0.1853074862830445 0.2477925730702698 0  0.1862606114623928 0.2480752452163551 0  0.1872191683779247 0.2483389112728883 0  0.1881827780733079 0.2485834670020091 0  0.1891510595946395 0.2488088157209427 0  0.190123630141055 0.2490148683402223 0  0.1911001052160725 0.249201543398912 0  0.1920800987795951 0.2493687670968096 0  0.193063223400507 0.2495164733236196 0  0.1940490904098745 0.2496446036850951 0  0.1950373100545754 0.2497531075261192 0  0.1960274916514073 0.2498419419507343 0  0.1970192437415125 0.2499110718390969 0  0.198012174245165 0.2499604698613656 0  0.1990058906167587 0.2499901164885036 0  0.2009922815247377 0.249990152804084 0  0.2019841722018526 0.2499606150950265 0  0.2029752813376769 0.2499113985073718 0  0.2039652185463697 0.2498425224269351 0  0.2049535939037139 0.2497540139831661 0  0.2059400181006617 0.2496459080384659 0  0.2069241025967376 0.2495182471744493 0  0.2079054597730191 0.2493710816751788 0  0.2088837030848367 0.2492044695073574 0  0.2098584472140755 0.2490184762974869 0  0.2108293082208741 0.2488131753060309 0  0.211795903694889 0.2485886473985529 0  0.2127578529059099 0.2483449810138671 0  0.213714776953856 0.2480822721291952 0  0.2146662989179692 0.2478006242223758 0  0.2156120440053292 0.2475001482310915 0  0.2165516396984531 0.2471809625091794 0  0.2174847159020201 0.246843192780015 0  0.2184109050886703 0.2464869720869834 0  0.2193298424437392 0.2461124407410866 0  0.2202411660089832 0.2457197462656649 0  0.221144516825145 0.2453090433382913 0  0.2220395390733109 0.24488049372986 0  0.2229258802151151 0.2444342662408439 0  0.2238031911315543 0.2439705366348274 0  0.2246711262605413 0.2434894875692555 0  0.2255293437329829 0.2429913085235052 0  0.2263775055074485 0.2424761957242468 0  0.2272152775033272 0.2419443520681497 0  0.2280423297324282 0.2413959870419558 0  0.2288583364289362 0.2408313166399803 0  0.2296629761777355 0.2402505632790287 0  0.2304559320410229 0.2396539557107812 0  0.2312368916831205 0.2390417289317084 0  0.2320055474935305 0.2384141240904874 0  0.2327615967080865 0.2377713883930244 0  0.2335047415281834 0.2371137750051059 0  0.2342346892381192 0.2364415429526441 0  0.2349511523203819 0.2357549570196563 0  0.2356538485688693 0.2350542876439979 0  0.2363425012000728 0.234339810810817 0  0.2370168389620986 0.233611807943847 0  0.2376765962415079 0.2328705657945583 0  0.2383215131679401 0.2321163763292093 0  0.2389513357164493 0.2313495366138713 0  0.2395658158075933 0.2305703486973832 0  0.2401647114051427 0.2297791194923826 0  0.2407477866114077 0.2289761606544274 0  0.2413148117601626 0.2281617884592284 0  0.241865563507087 0.227336323678104 0  0.2423998249177749 0.2265000914515787 0  0.2429173855531525 0.225653421161359 0  0.2434180415523801 0.2247966463005745 0  0.2439015957131415 0.223930104342436 0  0.2443678575693483 0.2230541366072561 0  0.24481664346612 0.2221690881280824 0  0.2452477766321538 0.2212753075147391 0  0.2456610872493319 0.2203731468165548 0  0.2460564125196313 0.2194629613836526 0  0.2464335967292448 0.2185451097269838 0  0.2467924913098936 0.2176199533771669 0  0.2471329548973678 0.2166878567420354 0  0.2474548533872029 0.2157491869631128 0  0.247758059987497 0.2148043137710142 0  0.2480424552688605 0.2138536093397906 0  0.2483079272114531 0.2128974481403473 0  0.2485543712491045 0.211936206792953 0  0.248781690310504 0.2109702639188891 0  0.2487816903528874 0.189029736071585 0  0.248554371291292 0.188063793196688 0  0.2483079272534285 0.1871025518484653 0  0.2480424553106083 0.1861463906482002 0  0.247758060028999 0.1851956862161531 0  0.2474548534284403 0.1842508130232283 0  0.2471329549383295 0.1833121432434998 0  0.2467924913505611 0.1823800466075607 0  0.2464335967696031 0.1814548902569446 0  0.2460564125596605 0.1805370385994729 0  0.2456610872890168 0.1796268531657758 0  0.2452477766714836 0.1787246924668146 0  0.2448166435050793 0.1778309118527012 0  0.244367857607925 0.1769458633727707 0  0.2439015957513221 0.1760698956368435 0  0.2434180415901397 0.1752033536779475 0  0.2429173855904805 0.1743465788164212 0  0.2423998249546587 0.1734999085254716 0  0.2418655635435135 0.1726636762982273 0  0.241314811796117 0.1718382115163916 0  0.2407477866468799 0.1710238393204962 0  0.2401647114401126 0.1702208804818451 0  0.2395658158420514 0.1694296512761641 0  0.2389513357503817 0.1686504633590049 0  0.2383215132013379 0.1678836236430112 0  0.2376765962743508 0.1671294341770081 0  0.2370168389943711 0.1663881920270737 0  0.2363425012317625 0.1656601891594697 0  0.2356538485999706 0.1649457123256735 0  0.2349511523508909 0.1642450429494192 0  0.2342346892680136 0.1635584570158367 0  0.2335047415574387 0.162886224962781 0  0.2327615967367009 0.16222861157429 0  0.2320055475214961 0.1615858758762702 0  0.2312368917104189 0.1609582710344991 0  0.2304559320676362 0.1603460442548843 0  0.2296629762036587 0.1597494366861128 0  0.2288583364541564 0.1591686833246493 0  0.2280423297569378 0.1586040129221778 0  0.2272152775271179 0.1580556478955031 0  0.2263775055305116 0.15752380423894 0  0.2255293437553084 0.1570086914392297 0  0.2246711262821224 0.1565105123930434 0  0.2238031911523804 0.1560294633270493 0  0.2229258802351727 0.155565733720623 0  0.2220395390925889 0.155119506231211 0  0.2211445168436376 0.1546909566224005 0  0.2202411660266905 0.154280253694667 0  0.2193298424606349 0.153887559218893 0  0.2184109051047605 0.1535130278726656 0  0.2174847159172987 0.1531568071793198 0  0.2165516397129119 0.1528190374498567 0  0.2156120440189679 0.1524998517276643 0  0.214666298930779 0.1521993757361151 0  0.2137147769658312 0.1519177278290473 0  0.2127578529170514 0.1516550189441453 0  0.2117959037051858 0.1514113525592444 0  0.2108293082303305 0.15118682
[...]
<PointData  Vectors="f_22-0"> 
<DataArray  type="Float64"  Name="f_22-0"  NumberOfComponents="3" format="ascii">0.0000000000000000e+00 0.0000000000000000e+00 0.0000000000000000e+00  0.0000000000000000e+00 0.0000000000000000e+00 0.0000000000000000e+00  0.0000000000000000e+00 0.0000000000000000e+00 0.0000000000000000e+00  0.0000000000000000e+00 0.0000000000000000e+00 0.0000000000000000e+00  0.0000000000000000e+00 0.0000000000000000e+00 0.0000000000000000e+00  0.0000000000000000e+00 0.0000000000000000e+00 0.0000000000000000e+00  0.0000000000000000e+00 0.0000000000000000e+00 0.0000000000000000e+00  0.0000000000000000e+00 0.0000000000000000e+00 0.0000000000000000e+00  0.0000000000000000e+00 0.0000000000000000e+00 0.0000000000000000e+00  0.0000000000000000e+00 0.0000000000000000e+00 0.0000000000000000e+00  0.0000000000000000e+00 0.0000000000000000e+00 0.0000000000000000e+00  1.5345118953812066e-04 0.0000000000000000e+00 0.0000000000000000e+00  2.3017678430739235e-04 0.0000000000000000e+00 0.0000000000000000e+00  2.3017678430780443e-04 0.0000000000000000e+00 0.0000000000000000e+00  1.5345118953870242e-04 0.0000000000000000e+00 0.0000000000000000e+00  0.0000000000000000e+00 0.0000000000000000e+00 0.0000000000000000e+00  0.0000000000000000e+00 0.0000000000000000e+00 0.0000000000000000e+00  0.0000000000000000e+00 0.0000000000000000e+00 0.0000000000000000e+00  0.0000000000000000e+00 0.0000000000000000e+00 0.0000000000000000e+00  0.0000000000000000e+00 0.0000000000000000e+00 0.0000000000000000e+00  0.0000000000000000e+00 0.0000000000000000e+00 0.0000000000000000e+00  0.0000000000000000e+00 0.0000000000000000e+00 0.0000000000000000e+00  0.0000000000000000e+00 0.0000000000000000e+00 0.0000000000000000e+00  0.0000000000000000e+00 0.0000000000000000e+00 0.0000000000000000e+00  0.0000000000000000e+00 0.0000000000000000e+00 0.0000000000000000e+00  0.0000000000000000e+00 0.0000000000000000e+00 0.0000000000000000e+00  0.0000000000000000e+00 0.0000000000000000e+00 0.0000000000000000e+00  0.0000000000000000e+00 0.0000000000000000e+00 0.0000000000000000e+00  0.0000000000000000e+00 0.0000000000000000e+00 0.0000000000000000e+00  0.0000000000000000e+00 0.0000000000000000e+00 0.0000000000000000e+00  0.0000000000000000e+00 0.0000000000000000e+00 0.0000000000000000e+00  0.0000000000000000e+00 0.0000000000000000e+00 0.0000000000000000e+00  0.0000000000000000e+00 0.0000000000000000e+00 0.0000000000000000e+00  0.0000000000000000e+00 0.0000000000000000e+00 0.0000000000000000e+00  0.0000000000000000e+00 0.0000000000000000e+00 0.0000000000000000e+00  0.0000000000000000e+00 0.0000000000000000e+00 0.0000000000000000e+00  0.0000000000000000e+00 0.0000000000000000e+00 0.0000000000000000e+00  0.0000000000000000e+00 0.0000000000000000e+00 0.0000000000000000e+00  0.0000000000000000e+00 0.0000000000000000e+00 0.0000000000000000e+00  1.5961356607116175e-04 -6.3824453588741330e-07 0.0000000000000000e+00  1.6605264925788999e-04 4.5340065479972720e-08 0.0000000000000000e+00  1.6603271033829083e-04 -6.1748373935883561e-08 0.0000000000000000e+00  1.5956270617661483e-04 4.0440741330024226e-07 0.0000000000000000e+00  0.0000000000000000e+00 0.0000000000000000e+00 0.0000000000000000e+00  0.0000000000000000e+00 0.0000000000000000e+00 0.0000000000000000e+00  0.0000000000000000e+00 0.0000000000000000e+00 0.0000000000000000e+00  0.0000000000000000e+00 0.0000000000000000e+00 0.0000000000000000e+00  0.0000000000000000e+00 0.0000000000000000e+00 0.0000000000000000e+00  0.0000000000000000e+00 0.0000000000000000e+00 0.0000000000000000e+00  0.0000000000000000e+00 0.0000000000000000e+00 0.0000000000000000e+00  0.0000000000000000e+00 0.0000000000000000e+00 0.0000000000000000e+00  0.0000000000000000e+00 0.0000000000000000e+00 0.0000000000000000e+00  0.0000000000000000e+00 0.0000000000000000e+00 0.0000000000000000e+00  0.0000000000000000e+00 0.0000000000000000e+00 0.0000000000000000e+00  0.0000000000000000e+00 0.0000000000000000e+00 0.0000000000000000e+00  0.0000000000000000e+00 0.0000000000000000e+00 0.0000000000000000e+00  0.0000000000000000e+00 0.0000000000000000e+00 0.0000000000000000e+00  0.0000000000000000e+00 0.0000000000000000e+00 0.0000000000000000e+00  0.0000000000000000e+00 0.0000000000000000e+00 0.0000000000000000e+00  0.0000000000000000e+00 0.0000000000000000e+00 0.0000000000000000e+00  0.0000000000000000e+00 0.0000000000000000e+00 0.0000000000000000e+00  0.0000000000000000e+00 0.0000000000000000e+00 0.0000000000000000e+00  0.0000000000000000e+00 0.0000000000000000e+00 0.0000000000000000e+00  0.0000000000000000e+00 0.0000000000000000e+00 0.0000000000000000e+00  0.0000000000000000e+00 0.0000000000000000e+00 0.0000000000000000e+00  0.0000000000000000e+00 0.0000000000000000e+00 0.0000000000000000e+00  0.0000000000000000e+00 0.0000000000000000e+00 0.0000000000000000e+00  0.0000000000000000e+00 0.0000000000000000e+00 0.0000000000000000e+00  0.0000000000000000e+00 0.0000000000000000e+00 0.0000000000000000e+00  0.0000000000000000e+00 0.0000000000000000e+00 0.0000000000000000e+00  0.0000000000000000e+00 0.0000000000000000e+00 0.0000000000000000e+00  0.0000000000000000e+00 0.0000000000000000e+00 0.0000000000000000e+00  0.0000000000000000e+00 0.0000000000000000e+00 0.0000000000000000e+00  0.0000000000000000e+00 0.0000000000000000e+00 0.0000000000000000e+00  0.0000000000000000e+00 0.0000000000000000e+00 0.0000000000000000e+00  0.0000000000000000e+00 0.0000000000000000e+00 0.0000000000000000e+00  0.0000000000000000e+00 0.0000000000000000e+00 0.0000000000000000e+00  0.0000000000000000e+00 0.0000000000000000e+00 0.0000000000000000e+00  0.0000000000000000e+00 0.0000000000000000e+00 0.0000000000000000e+00  0.0000000000000000e+00 0.0000000000000000e+00 0.0000000000000000e+00  0.0000000000000000e+00 0.0000000000000000e+00 0.0000000000000000e+00  0.0000000000000000e+00 0.0000000000000000e+00 0.0000000000000000e+00  0.0000000000000000e+00 0.0000000000000000e+00 0.0000000000000000e+00  0.0000000000000000e+00 0.0000000000000000e+00 0.0000000000000000e+00  0.0000000000000000e+00 0.0000000000000000e+00 0.0000000000000000e+00  0.0000000000000000e+00 0.0000000000000000e+00 0.0000000000000000e+00  0.0000000000000000e+00 0.0000000000000000e+00 0.0000000000000000e+00  0.0000000000000000e+00 0.0000000000000000e+00 0.0000000000000000e+00  0.0000000000000000e+00 0.0000000000000000e+00 0.0000000000000000e+00  0.0000000000000000e+00 0.0000000000000000e+00 0.0000000000000000e+00  0.0000000000000000e+00 0.0000000000000000e+00 0.0000000000000000e+00  0.0000000000000000e+00 0.0000000000000000e+00 0.0000000000000000e+00  0.0000000000000000e+00 0.0000000000000000e+00 0.0000000000000000e+00  0.0000000000000000e+00 0.0000000000000000e+00 0.0000000000000000e+00  0.0000000000000000e+00 0.0000000000000000e+00 0.0000000000000000e+00  0.0000000000000000e+00 0.0000000000000000e+00 0.0000000000000000e+00  0.0000000000000000e+00 0.0000000000000000e+00 0.0000000000000000e+00  0.0000000000000000e+00 0.0000000000000000e+00 0.0000000000000000e+00  0.0000000000000000e+00 0.0000000000000000e+00 0.0000000000000000e+00  0.0000000000000000e+00 0.0000000000000000e+00 0.0000000000000000e+00  0.0000000000000000e+00 0.0000000000000000e+00 0.0000000000000000e+00  0.0000000000000000e+00 0.0000000000000000e+00 0.0000000000000000e+00  0.0000000000000000e+00 0.0000000000000000e+00 0.0000000000000000e+00  0.0000000000000000e+00 0.0000000000000000e+00 0.0000000000000000e+00  0.0000000000000000e+00 0.0000000000000000e+00 0.0000000000000000e+00  0.0000000000000000e+00 0.0000000000000000e+00 0.0000000000000000e+00  0.0000000000000000e+00 0.0000000000000000e+00 0.0000000000000000e+00  0.0000000000000000e+00 0.0000000000000000e+00 0.0000000000000000e+00  0.0000000000000000e+00 0.0000000000000000e+00 0.0000000000000000e+00  0.0000000000000000e+00 0.0000000000000000e+00 0.0000000000000000e+00  0.0000000000000000e+00 0.0000000000000000e+00 0.0000000000000000e+00  0.0000000000000000e+00 0.0000000000000000e+00 0.0000000000000000e+00  0.0000000000000000e+00 0.0000000000000000e+00 0.0000000000000000e+00  0.0000000000000000e+00 0.0000000000000000e+00 0.0000000000000000e+00  0.0000000000000000e+00 0.0000000000000000e+00 0.0000000000000000e+00  0.0000000000000000e+00 0.0000000000000000e+00 0.0000000000000000e+00  0.0000000000000000e+00 0.0000000000000000e+00 0.0000000000000000e+00  0.0000000000000000e+00 0.0000000000000000e+00 0.0000000000000000e+00  0.0000000000000000e+00 0.0000000000000000e+00 0.0000000000000000e+00  0.0000000000000000e+00 0.0000000000000000e+00 0.0000000000000000e+00  0.0000000000000000e+00 0.0000000000000000e+00 0.0000000000000000e+00  0.0000000000000000e+00 0.0000000000000000e+00 0.0000000000000000e+00  0.0000000000000000e+00 0.0000000000000000e+00 0.0000000000000000e+00  0.0000000000000000e+00 0.0000000000000000e+00 0.0000000000000000e+00  0.0000000000000000e+00 0.0000000000000000e+00 0.0000000000000000e+00  0.0000000000000000e+00 0.0000000000000000e+00 0.0000000000000000e+00  0.0000000000000000e+00 0.0000000000000000e+00 0.0000000000000000e+00  0.0000000000000000e+00 0.0000000000000000e+00 0.0000000000000000e+00  0.0000000000000000e+00 0.0000000000000000e+00 0.0000000000000000e+00  0.0000000000000000e+00 0.0000000000000000e+00 0.0000000000000000e+00  0.0000000000000000e+00 0.0000000000000000e+00 0.0000000000000000e+00  0.0000000000000000e+00 0.0000000000000000e+00 0.0000000000000000e+00  0.0000000000000000e+00 0.0000000000000000e+00 0.0000000000000000e+00  0.0000000000000000e+00 0.0000000000000000e+00 0.0000000000000000e+00  0.0000000000000000e+00 0.0000000000000000e+00 0.0000000000000000e+00  0.0000000000000000e+00 0.0000000000000000e+00 0.0000000000000000e+00  0.0000000000000000e+00 0.0000000000000000e+00 0.0000000000000000e+00  0.0000000000000000e+00 0.0000000000000000e+00 0.0000000000000000e+00  0.0000000000000000e+00 0.0000000000000000e+00 0.0000000000000000e+00  0.0000000000000000e+00 0.0000000000000000e+00 0.0000000000000000e+00  0.0000000000000000e+00 0.0000000000000000e+00 0.0000000000000000e+00  0.0000000000000000e+00 0.0000000000000000e+00 0.0000000000000000e+00  0.0000000000000000e+00 0.0000000000000000e+00 0.0000000000000000e+00  0.0000000000000000e+00 0.0000000000000000e+00 0.0000000000000000e+00  0.0000000000000000e+00 0.0000000000000000e+00 0.0000000000000000e+00  0.0000000000000000e+00 0.0000000000000000e+00 0.0000000000000000e+00  0.0000000000000000e+00 0.0000000000000000e+00 0.0000000000000000e+00  0.0000000000000000e+00 0.0000000000000000e+00 0.0000000000000000e+00  0.0000000000000000e+00 0.0000000000000000e+00 0.0000000000000000e+00  0.0000000000000000e+00 0.0000000000000000e+00 0.0000000000000000e+00  0.0000000000000000e+00 0.0000000000000000e+00 0.0000000000000000e+00  0.0000000000000000e+00 0.0000000000000000e+00 0.0000000000000000e+00  0.0000000000000000e+00 0.0000000000000000e+00 0.0000000000000000e+00  0.0000000000000000e+00 0.0000000000000000e+00 0.0000000000000000e+00  0.0000000000000000e+00 0.0000000000000000e+00 0.0000000000000000e+00  0.0000000000000000e+00 0.0000000000000000e+00 0.0000000000000000e+00  0.0000000000000000e+00 0.0000000000000000e+00 0.0000000000000000e+00  0.0000000000000000e+00 0.0000000000000000e+00 0.0000000000000000e+00  0.0000000000000000e+00 0.0000000000000000e+00 0.0000000000000000e+00  0.0000000000000000e+00 0.0000000000000000e+00 0.0000000000000000e+00  0.0000000000000000e+00 0.0000000000000000e+00 0.0000000000000000e+00  0.0000000000000000e+00 0.0000000000000000e+00 0.0000000000000000e+00  0.0000000000000000e+00 0.0000000000000000e+00 0.0000000000000000e+00  0.0000000000000000e+00 0.0000000000000000e+00 0.0000000000000000e+00  0.0000000000000000e+00 0.0000000000000000e+00 0.0000000000000000e+00  0.0000000000000000e+00 0.0000000000000000e+00 0.0000000000000000e+00  0.0000000000000000e+00 0.0000000000000000e+00 0.0000000000000000e+00  0.0000000000000000e+00 0.0000000000000000e+00 0.0000000000000000e+00  0.0000000000000000e+00 0.0000000000000000e+00 0.0000000000000000e+00  0.0000000000000000e+00 0.0000000000000000e+00 0.0000000000000000e+00  0.0000000000000000e+00 0.0000000000000000e+00 0.0000000000000000e+00  0.0000000000000000e+00 0.0000000000000000e+00 0.0000000000000000e+00  0.0000000000000000e+00 0.0000000000000000e+00 0.0000000000000000e+00  0.0000000000000000e+00 0.0000000000000000e+00 0.0000000000000000e+00  0.0000000000000000e+00 0.0000000000000000e+00 0.0000000000000000e+00  0.0000000000000000e+00 0.0000000000000000e+00 0.0000000000000000e+00  0.0000000000000000e+00 0.0000000000000000e+00 0.0000000000000000e+00  0.0000000000000000e+00 0.0000000000000000e+00 0.0000000000000000e+00  0.0000000000000000e+00 0.0000000000000000e+00 0.0000000000000000e+00  0.0000000000000000e+00 0.0000000000000000e+00 0.0000000000000000e+00  0.0000000000000000e+00 0.0000000000000000e+00 0.0000000000000000e+00  0.0000000000000000e+00 0.0000000000000000e+00 0.0000000000000000e+00  0.0000000000000000e+00 0.0000000000000000e+00 0.0000000000000000e+00  0.0000000000000000e+00 0.0000000000000000e+00 0.0000000000000000e+00  0.0000000000000000e+00 0.0000000000000000e+00 0.0000000000000000e+00  0.0000000000000000e+00 0.0000000000000000e+00 0.0000000000000000e+00  0.0000000000000000e+00 0.0000000000000000e+00 0.0000000000000000e+00  0.0000000000000000e+00 0.0000000000000000e+00 0.0000000000000000e+00  0.0000000000000000e+00 0.0000000000000000e+00 0.0000000000000000e+00  0.0000000000000000e+00 0.0000000000000000e+00 0.0000000000000000e+00  0.0000000000000000e+00 0.0000000000000000e+00 0.0000000000000000e+00  0.0000000000000000e+00 0.0000000000000000e+00 0.0000000000000000e+00  0.0000000000000000e+00 0.0000000000000000e+00 0.0000000000000000e+00  0.0000000000000000e+00 0.0000000000000000e+00 0.0000000000000000e+00  0.0000000000000000e+00 0.0000000000000000e+00 0.0000000000000000e+00  0.0000000000000000e+00 0.0000000000000000e+00 0.0000000000000000e+00  0.0000000000000000e+00 0.0000000000000000e+00 0.0000000000000000e+00  0.0000000000000000e+00 0.0000000000000000e+00 0.0000000000000000e+00  0.0000000000000000e+00 0.0000000000000000e+00 0.0000000000000000e+00  0.0000000000000000e+00 0.0000000000000000e+00 0.0000000000000000e+00  0.0000000000000000e+00 0.0000000000000000e+00 0.0000000000000000e+00  0.0000000000000000e+00 0.0000000000000000e+00 0.0000000000000000e+00  0.0000000000000000e+00 0.0000000000000000e+00 0.0000000000000000e+00  0.0000000000000000e+00 0.0000000000000000e+00 0.0000000000000000e+00  0.0000000000000000e+00 0.0000000000000000e+00 0.0000000000000000e+00  0.0000000000000000e+00 0.0000000000000000e+00 0.0000000000000000e+00  0.0000000000000000e+00 0.0000000000000000e+00 0.0000000000000000e+00  0.0000000000000000e+00 0.0000000000000000e+00 0.0000000000000000e+00  0.0000000000000000e+00 0.0000000000000000e+00 0.0000000000000000e+00  0.0000000000000000e+00 0.0000000000000000e+00 0.0000000000000000e+00  0.0000000000000000e+00 0.0000000000000000e+00 0.0000000000000000e+00  0.0000000000000000e+00 0.0000000000000000e+00 0.0000000000000000e+00  0.0000000000000000e+00 0.0000000000000000e+00 0.0000000000000000e+00  0.0000000000000000e+00 0.0000000000000000e+00 0.0000000000000000e+00  0.0000000000000000e+00 0.0000000000000000e+00 0.0000000000000000e+00  0.0000000000000000e+00 0.0000000000000000e+00 0.0000000000000000e+00  0.0000000000000000e+00 0.0000000000000000e+00 0.0000000000000000e+00  0.0000000000000000e+00 0.0000000000000000e+00 0.0000000000000000e+00  0.0000000000000000e+00 0.0000000000000000e+00 0.0000000000000000e+00  0.0000000000000000e+00 0.0000000000000000e+00 0.0000000000000000e+00  0.0000000000000000e+00 0.0000000000000000e+00 0.0000000000000000e+00  0.0000000000000000e+00 0.0000000000000000e+00 0.0000000000000000e+00  0.0000000000000000e+00 0.0000000000000000e+00 0.0000000000000000e+00  0.0000000000000000e+00 0.0000000000000000e+00 0.0000000000000000e+00  0.0000000000000000e+00 0.0000000000000000e+00 0.0000000000000000e+00  0.0000000000000000e+00 0.0000000000000000e+00 0.0000000000000000e+00  0.0000000000000000e+00 0.0000000000000000e+00 0.0000000000000000e+00  0.0000000000000000e+00 0.0000000000000000e+00 0.0000000000000000e+00  0.0000000000000000e+00 0.0000000000000000e+00 0.0000000000000000e+00  0.0000000000000000e+00 0.0000000000000000e+00 0.0000000000000000e+00  0.0000000000000000e+00 0.0000000000000000e+00 0.0000000000000000e+00  0.0000000000000000e+00 0.0000000000000000e+00 0.0000000000000000e+00  0.0000000000000000e+00 0.0000000000000000e+00 0.0000000000000000e+00  0.0000000000000000e+00 0.0000000000000000e+00 0.0000000000000000e+00  0.0000000000000000e+00 0.0000000000000000e+00 0.0000000000000000e+00  0.0000000000000000e+00 0.0000000000000000e+00 0.0000000000000000e+00  0.0000000000000000e+00 0.0000000000000000e+00 0.0000000000000000e+00  0.0000000000000000e+00 0.0000000000000000e+00 0.0000000000000000e+00  0.0000000000000000e+00 0.0000000000000000e+00 0.0000000000000000e+00  0.0000000000000000e+00 0.0000000000000000e+00 0.0000000000000000e+00  0.0000000000000000e+00 0.0000000000000000e+00 0.0000000000000000e+00  0.0000000000000000e+00 0.0000000000000000e+00 0.0000000000000000e+00  0.0000000000000000e+00 0.0000000000000000e+00 0.0000000000000000e+00  0.0000000000000000e+00 0.0000000000000000e+00 0.0000000000000000e+00  0.0000000000000000e+00 0.0000000000000000e+00 0.0000000000000000e+00  0.0000000000000000e+00 0.0000000000000000e+00 0.0000000000000000e+00  0.0000000000000000e+00 0.0000000000000000e+00 0.0000000000000000e+00  0.0000000000000000e+00 0.0000000000000000e+00 0.0000000000000000e+00  0.0000000000000000e+00 0.0000000000000000e+00 0.0000000000000000e+00  0.0000000000000000e+00 0.0000000000000000e+00 0.0000000000000000e+00  0.0000000000000000e+00 0.0000000000000000e+00 0.0000000000000000e+00  0.0000000000000000e+00 0.0000000000000000e+00 0.0000000000000000e+00  0.0000000000000000e+00 0.0000000000000000e+00 0.0000000000000000e+00  0.0000000000000000e+00 0.0000000000000000e+00 0.0000000000000000e+00  0.0000000000000000e+00 0.0000000000000000e+00 0.0000000000000000e+00  0.0000000000000000e+00 0.0000000000000000e+00 0.0000000000000000e+00  0.0000000000000000e+00 0.0000000000000000e+00 0.0000000000000000e+00  0.0000000000000000e+00 0.0000000000000000e+00 0.0000000000000000e+00  0.0000000000000000e+00 0.0000000000000000e+00 0.0000000000000000e+00  0.0000000000000000e+00 0.0000000000000000e+00 0.0000000000000000e+00  0.0000000000000000e+00 0.0000000000000000e+00 0.0000000000000000e+00  0.0000000000000000e+00 0.0000000000000000e+00 0.0000000000000000e+00  0.0000000000000000e+00 0.0000000000000000e+00 0.0000000000000000e+00  0.0000000000000000e+00 0.0000000000000000e+00 0.0000000000000000e+00  0.0000000000000000e+00 0.0000000000000000e+00 0.0000000000000000e+00  0.0000000000000000e+00 0.0000000000000000e+00 0.0000000000000000e+00  0.0000000000000000e+00 0.0000000000000000e+00 0.0000000000000000e+00  0.0000000000000000e+00 0.0000000000000000e+00 0.0000000000000000e+00  0.0000000000000000e+00 0.0000000000000000e+00 0.0000000000000000e+00  0.0000000000000000e+00 0.0000000000000000e+00 0.0000000000000000e+00  0.0000000000000000e+00 0.0000000000000000e+00 0.0000000000000000e+00  0.0000000000000000e+00 0.0000000000000000e+00 0.0000000000000000e+00  0.0000000000000000e+00 0.0000000000000000e+00 0.0000000000000000e+00  0.0000000000000000e+00 0.0000000000000000e+00 0.0000000000000000e+00  0.0000000000000000e+00 0.0000000000000000e+00 0.0000000000000000e+00  0.0000000000000000e+00 0.0000000000000000e+00 0.0000000000000000e+00  0.0000000000000000e+00 0.0000000000000000e+00 0.0000000000000000e+00  0.0000000000000000e+00 0.0000000000000000e+00 0.0000000000000000e+00  0.0000000000000000e+00 0.0000000000000000e+00 0.0000000000000000e+00  0.0000000000000000e+00 0.0000000000000000e+00 0.0000000000000000e+00  0.0000000000000000e+00 0.0000000000000000e+00 0.0000000000000000e+00  0.0000000000000000e+00 0.0000000000000000e+00 0.0000000000000000e+00  0.0000000000000000e+00 0.0000000000000000e+00 0.0000000000000000e+00  0.0000000000000000e+00 0.0000000000000000e+00 0.0000000000000000e+00  0.0000