<?xml version="1.0"?>
<VTKFile type="UnstructuredGrid"  version="0.1"  >
<UnstructuredGrid>
<Piece  NumberOfPoints="439" NumberOfCells="725">
<Points>
<DataArray  type="Float64"  NumberOfComponents="3"  format="ascii">0.5995267621758301 0.1908644201916276 0  0.5995476623296355 0.2107400829780892 0  0.2489897949 0.21 0  0.2489897949 0.19 0  0.599536075666983 0.2008028126525587 0  0.2496355385699469 0.2060260530378829 0  0.249959460510575 0.2020130349814059 0  0.2499594605105767 0.1979869650186357 0  0.24963553856995 0.1939739469621422 0  0.2539022037040318 0.2100348895426259 0  0.2588187699408008 0.2100649097970994 0  0.2637383241680825 0.2100993810628163 0  0.2686627399688455 0.21014333219564 0  0.2735921706987906 0.2101895623082332 0  0.2785253161664641 0.210239472576452 0  0.2834619564128832 0.2102876630446318 0  0.288401918322263 0.2103340231900843 0  0.2933449990334009 0.2103767840962316 0  0.2982899732136216 0.2104142735666672 0  0.3032374559525816 0.2104430187489016 0  0.3081861780564236 0.2104692589626952 0  0.3131338056157845 0.2104843633873509 0  0.3180843883250026 0.2104921939080958 0  0.3230314827095427 0.2104936362721833 0  0.3279782330037549 0.21048734049997 0  0.3329226794743576 0.2104770919081881 0  0.337864660882867 0.2104615266123388 0  0.3428043624964258 0.2104446275783229 0  0.3477408916934506 0.210425974934988 0  0.3526749497447444 0.2104073821606464 0  0.3576070965419511 0.210391393586445 0  0.3625370211052641 0.2103806806924839 0  0.3674656152015428 0.2103728498555441 0  0.3723947383128852 0.2103746672158021 0  0.3773247247667277 0.2103826095981327 0  0.3822551539204985 0.2103999553520041 0  0.3871863974860181 0.210425082377499 0  0.3921191372336691 0.2104572987260247 0  0.3970496186079284 0.2104993001672116 0  0.4019815665536435 0.2105418566004779 0  0.4069142988167652 0.2105927373931893 0  0.4118475209888182 0.2106467092448629 0  0.4167824812944104 0.2107016853351925 0  0.4217192731981375 0.2107591792376532 0  0.4266592847360584 0.2108181536603468 0  0.4316016229703047 0.210873863816879 0  0.4365489922497809 0.21092834791123 0  0.4414973870352756 0.2109773005755861 0  0.4464476575964939 0.2110194026577596 0  0.4514006911600661 0.211054322631355 0  0.4563555625828679 0.2110809012540969 0  0.4613088885898436 0.2110954093365068 0  0.4662628285944749 0.2111002698852886 0  0.4712149719525672 0.2110950533235355 0  0.4761651024017476 0.2110776438030364 0  0.4811125620870619 0.2110534548084 0  0.4860561043460797 0.211023153980732 0  0.4909998405914138 0.2109885444189745 0  0.4959411052145669 0.2109534765149224 0  0.5008799139349654 0.2109196742659778 0  0.5058220230372997 0.2108903293814984 0  0.5107645243647475 0.2108658392926097 0  0.5157082311599342 0.2108470279061767 0  0.5206559527164303 0.2108353272131938 0  0.5256052662572823 0.2108283911889936 0  0.5305562105854622 0.2108261863072789 0  0.5355082363179104 0.2108272002354097 0  0.5404584541047224 0.2108313505869111 0  0.5454056555829311 0.2108344872235517 0  0.5503509268584421 0.2108344977401781 0  0.555293222892273 0.2108373588332714 0  0.5602246200221489 0.2108331742240478 0  0.5651537873288776 0.2108280647400617 0  0.570074724371441 0.2108216393744765 0  0.5749909679953294 0.2108078737891553 0  0.579904540489443 0.2107971904201852 0  0.5848139569031657 0.2107814599446764 0  0.589723847968638 0.2107656220275402 0  0.5946350314136701 0.2107519419536165 0  0.5946179911089909 0.1908670333819563 0  0.5897160503351369 0.1908696322049298 0  0.5848174623560085 0.1908739188290985 0  0.5799195235212997 0.1908719545319607 0  0.5750206619291676 0.19086455631632 0  0.5701156317162769 0.19085477762546 0  0.5652018393939026 0.1908380163448559 0  0.5602818455757609 0.1908160548310625 0  0.5553478093832737 0.1907958427371089 0  0.5504043252437246 0.1907735276423432 0  0.5454506785178227 0.1907563805736353 0  0.540487612998491 0.1907411948755599 0  0.535521163830439 0.1907325539317567 0  0.5305498524815936 0.1907326445404099 0  0.5255754976467996 0.1907384740889229 0  0.5206034435828593 0.1907549611003928 0  0.5156312233646749 0.1907786425684854 0  0.5106654712946391 0.1908083362538174 0  0.5057057225710554 0.1908461751468858 0  0.5007492198115905 0.1908861434732984 0  0.4958036405758536 0.190927083296736 0  0.4908640248924315 0.1909684650097346 0  0.4859279540254903 0.1910058723116476 0  0.4810004034952105 0.1910372873645755 0  0.4760760662385612 0.1910613968041647 0  0.4711527536901267 0.1910777708368055 0  0.466233371695116 0.1910843680751764 0  0.4613135446079634 0.1910791360622742 0  0.4563925336434744 0.1910683847499865 0  0.4514693090981312 0.1910461402321882 0  0.4465474422626775 0.1910140059672657 0  0.4416229677840539 0.1909789215123162 0  0.4366970526539001 0.1909342207938241 0  0.4317685447233345 0.1908864779375499 0  0.4268390977392463 0.1908335163220561 0  0.4219068945653932 0.1907770959631785 0  0.4169727395702364 0.1907190843794265 0  0.4120348444953748 0.1906608283722668 0  0.4070925828422025 0.1906036111450004 0  0.4021456590482863 0.190549259659237 0  0.3971944623263434 0.1905005041760382 0  0.3922409846167919 0.1904576606882769 0  0.3872851922751822 0.1904242990530012 0  0.3823265553929267 0.1903979595510941 0  0.3773705959163684 0.1903828564296607 0  0.372415123544356 0.1903764104214315 0  0.367464648169445 0.1903768347364853 0  0.3625173893733358 0.1903834085892006 0  0.357574399244987 0.1903935770682821 0  0.3526343817743731 0.1904067658145069 0  0.3476961857880108 0.1904214580137573 0  0.3427604473163819 0.1904357722132967 0  0.3378278907474999 0.1904500711411674 0  0.3328961736488008 0.1904628323167716 0  0.3279681253047022 0.1904702483221158 0  0.3230419774326718 0.1904761270272949 0  0.3181174659906892 0.1904734848740559 0  0.3131961914424778 0.1904638946013553 0  0.3082720932614371 0.1904471560003994 0  0.3033480884479691 0.1904215913201057 0  0.2984217465111537 0.1903909466333004 0  0.2934936832102722 0.1903532697019326 0  0.288565075147891 0.1903107782714622 0  0.2836324903181343 0.190265380002252 0  0.2786965881999902 0.190215650825184 0  0.273756356549756 0.1901679116073004 0  0.2688103071596902 0.1901215336645167 0  0.2638615605436592 0.1900785396928389 0  0.2589089649512979 0.1900432710445454 0  0.2539514586051944 0.1900202541634599 0  0.5995305528371631 0.1958331495635292 0  0.599540435232049 0.2057715095602658 0  0.2589594710198114 0.2005934724543243 0  0.5429471521739179 0.2008194418381507 0  0.5680065872293991 0.2008369390403224 0  0.2774047717012587 0.201008785122298 0  0.5135523914674904 0.200729101435322 0  0.5284346717477967 0.2006997232010039 0  0.2944493011267524 0.1996689828660273 0  0.5824424389692697 0.2003889368445555 0  0.310323724474755 0.2004443492649723 0  0.3368699172390746 0.2012918155501966 0  0.4987009054998547 0.200818004341795 0  0.3551224399168333 0.2003967280842806 0  0.4838828898122259 0.2009263948881106 0  0.370558285556984 0.2003797045296949 0  0.3897098223066377 0.2004311417331256 0  0.4687088485239918 0.2006298098779543 0  0.4539044903205469 0.2010633247519892 0  0.4041719913137019 0.2006584545463347 0  0.4193490240110128 0.2007370278552496 0  0.4384682723299645 0.2009362188194728 0  0.3201413861422471 0.2005018408112986 0  0.5582102894729504 0.2008496652300682 0  0.4278510390012074 0.2006859564548931 0  0.3466208378559667 0.2005779450650258 0  0.3811916303994005 0.2005358963861472 0  0.2860142181903682 0.2003431690049711 0  0.5907184417460271 0.1990757544546345 0  0.267952765908864 0.2017945584118952 0  0.4613091164780294 0.2033407153497321 0  0.4909381072462903 0.2032283331917873 0  0.5057692750972476 0.2031231754576586 0  0.3971421406880847 0.1982408243231239 0  0.4761245616915945 0.203320760443111 0  0.520631368665224 0.2030630189015826 0  0.4464876160804815 0.2032691158911095 0  0.5355100802668407 0.2030628692149833 0  0.4119657966722758 0.1984005040264612 0  0.362525606286083 0.1981268055297976 0  0.3033044688721227 0.1981867624718201 0  0.575007123909211 0.1986148903761056 0  0.5502769772880832 0.1979558750900703 0  0.3280746388186892 0.2033584677142483 0  0.5482215222193537 0.204681214324354 0  0.3301104856857782 0.1966365198224962 0  0.5377095977268709 0.196912017752094 0  0.5228131942387537 0.1969093154241256 0  0.5079299471989882 0.1969704934930989 0  0.5771721518637479 0.2047166742103997 0  0.3010837220237174 0.2043052132070794 0  0.4782859614211739 0.1971780494381993 0  0.4930891148888492 0.1970786375065272 0  0.3949093346695003 0.2043472933846489 0  0.3603427518606631 0.2042556502097376 0  0.4591251267426191 0.1972039048637868 0  0.4487026230917581 0.1971569218280744 0  0.4097224028092909 0.2044968198764024 0  0.2557881763093401 0.1961045106778308 0  0.2550014100015555 0.2034629626302339 0  0.4345460022308922 0.20468299555439 0  0.3744616024319459 0.1965961758624692 0  0.3404823787080813 0.1964937563050866 0  0.2812857294872634 0.1962961510085969 0  0.2912364043130206 0.1964270969461482 0  0.4244235201752449 0.2047477894834827 0  0.350004114458118 0.1964605480382345 0  0.3846046900907842 0.1964472841723272 0  0.3165413147700867 0.1966438655065374 0  0.5619410849775924 0.2046404726664086 0  0.5622446317918077 0.196932797203386 0  0.3161312707833768 0.2043593952088485 0  0.2710876877494494 0.1961142466803274 0  0.5869282706929988 0.2055297764117207 0  0.4344738127413713 0.1963768663670482 0  0.4241555686674587 0.1966734286271451 0  0.3401287099258776 0.2052470092354914 0  0.2807838849274288 0.205029063210551 0  0.2913105446511582 0.205137522484597 0  0.3745837337047358 0.2049044417224994 0  0.3497807805794097 0.2055920378996421 0  0.3843274078001583 0.2055776485076536 0  0.2648148315777709 0.1962956675941613 0  0.593900768233966 0.2048315650225461 0  0.5318625324135149 0.1964202972067798 0  0.5169645197788862 0.196442013170771 0  0.3068884030678339 0.2048092483832033 0  0.5020948439435904 0.1965273244043643 0  0.5713992069429702 0.2051978587059386 0  0.4872702841023216 0.1966402312853061 0  0.4725195169844019 0.1967150070742029 0  0.3661562678742688 0.2047373531478828 0  0.46
[...]
<PointData  Vectors="d"> 
<DataArray  type="Float64"  Name="d"  NumberOfComponents="3" format="ascii">-4.7323782416975642e-04 8.6442019162751753e-04 0.0000000000000000e+00  -4.5233767036442725e-04 7.4008297808918189e-04 0.0000000000000000e+00  0.0000000000000000e+00 0.0000000000000000e+00 0.0000000000000000e+00  0.0000000000000000e+00 0.0000000000000000e+00 0.0000000000000000e+00  -4.6392433301704796e-04 8.0281265255858873e-04 0.0000000000000000e+00  0.0000000000000000e+00 0.0000000000000000e+00 0.0000000000000000e+00  0.0000000000000000e+00 0.0000000000000000e+00 0.0000000000000000e+00  0.0000000000000000e+00 0.0000000000000000e+00 0.0000000000000000e+00  0.0000000000000000e+00 0.0000000000000000e+00 0.0000000000000000e+00  -3.1396901597310599e-05 3.4889542625988397e-05 0.0000000000000000e+00  -5.8636370453446841e-05 6.4909797099317959e-05 0.0000000000000000e+00  -8.2887848809560149e-05 9.9381062816366708e-05 0.0000000000000000e+00  -1.0227775368446003e-04 1.4333219564001640e-04 0.0000000000000000e+00  -1.1665272936643677e-04 1.8956230823313847e-04 0.0000000000000000e+00  -1.2731296731131956e-04 2.3947257645198948e-04 0.0000000000000000e+00  -1.3447842651042327e-04 2.8766304463184039e-04 0.0000000000000000e+00  -1.3832222275359180e-04 3.3402319008426568e-04 0.0000000000000000e+00  -1.3904721725122715e-04 3.7678409623169461e-04 0.0000000000000000e+00  -1.3787874264926334e-04 4.1427356666710977e-04 0.0000000000000000e+00  -1.3420170931816713e-04 4.4301874890151447e-04 0.0000000000000000e+00  -1.2928531109437282e-04 4.6925896269529253e-04 0.0000000000000000e+00  -1.2546345735202127e-04 4.8436338735085443e-04 0.0000000000000000e+00  -1.1868645375237230e-04 4.9219390809589572e-04 0.0000000000000000e+00  -1.1539777483055826e-04 4.9363627218333489e-04 0.0000000000000000e+00  -1.1245318623670655e-04 4.8734049997001825e-04 0.0000000000000000e+00  -1.1181242126318489e-04 4.7709190818811652e-04 0.0000000000000000e+00  -1.1363671836153253e-04 4.6152661233883223e-04 0.0000000000000000e+00  -1.1774081043187784e-04 4.4462757832302002e-04 0.0000000000000000e+00  -1.2501731902534621e-04 4.2597493498798544e-04 0.0000000000000000e+00  -1.3476497335005743e-04 4.0738216064635459e-04 0.0000000000000000e+00  -1.4642388176148077e-04 3.9139358644501356e-04 0.0000000000000000e+00  -1.6030502406677992e-04 3.8068069248399397e-04 0.0000000000000000e+00  -1.7551663340682701e-04 3.7284985554416299e-04 0.0000000000000000e+00  -1.9019922769357027e-04 3.7466721580217986e-04 0.0000000000000000e+00  -2.0401847945997401e-04 3.8260959813272072e-04 0.0000000000000000e+00  -2.1739503131370139e-04 3.9995535200411261e-04 0.0000000000000000e+00  -2.2995717141573274e-04 4.2508237749903672e-04 0.0000000000000000e+00  -2.4102312939408988e-04 4.5729872602464570e-04 0.0000000000000000e+00  -2.5434746074212250e-04 4.9930016721155834e-04 0.0000000000000000e+00  -2.6620522065485099e-04 5.4185660047772707e-04 0.0000000000000000e+00  -2.7727866314562652e-04 5.9273739318934336e-04 0.0000000000000000e+00  -2.8786219671275438e-04 6.4670924486284374e-04 0.0000000000000000e+00  -2.9670759674134178e-04 7.0168533519248809e-04 0.0000000000000000e+00  -3.0372139862601811e-04 7.5917923765320388e-04 0.0000000000000000e+00  -3.0751556633355607e-04 8.1815366034692478e-04 0.0000000000000000e+00  -3.0898303772029160e-04 8.7386381687898503e-04 0.0000000000000000e+00  -3.0541946389636563e-04 9.2834791122997943e-04 0.0000000000000000e+00  -3.0083038405714837e-04 9.7730057558611453e-04 0.0000000000000000e+00  -2.9436552850297412e-04 1.0194026577597160e-03 0.0000000000000000e+00  -2.8513767057844220e-04 1.0543226313549509e-03 0.0000000000000000e+00  -2.7407195341856873e-04 1.0809012540967486e-03 0.0000000000000000e+00  -2.6455165207237968e-04 1.0954093365067668e-03 0.0000000000000000e+00  -2.5441735309170128e-04 1.1002698852885678e-03 0.0000000000000000e+00  -2.4607970063260549e-04 1.0950533235356084e-03 0.0000000000000000e+00  -2.3975495711912881e-04 1.0776438030364671e-03 0.0000000000000000e+00  -2.3610097745150168e-04 1.0534548083999736e-03 0.0000000000000000e+00  -2.3636442409653900e-04 1.0231539807320444e-03 0.0000000000000000e+00  -2.3643388439267677e-04 9.8854441897451789e-04 0.0000000000000000e+00  -2.3897496689416313e-04 9.5347651492240894e-04 0.0000000000000000e+00  -2.4397195212395311e-04 9.1967426597785421e-04 0.0000000000000000e+00  -2.4566855544941898e-04 8.9032938149846935e-04 0.0000000000000000e+00  -2.4697293364007604e-04 8.6583929260975606e-04 0.0000000000000000e+00  -2.4707184406980360e-04 8.4702790617665203e-04 0.0000000000000000e+00  -2.4315599321125223e-04 8.3532721319377965e-04 0.0000000000000000e+00  -2.3764815801827568e-04 8.2839118899370051e-04 0.0000000000000000e+00  -2.3050953547711206e-04 8.2618630727886253e-04 0.0000000000000000e+00  -2.2228950868816188e-04 8.2720023540967986e-04 0.0000000000000000e+00  -2.1587742751435051e-04 8.3135058691109157e-04 0.0000000000000000e+00  -2.1248165492204543e-04 8.3448722355180984e-04 0.0000000000000000e+00  -2.1101608504871402e-04 8.3449774017804214e-04 0.0000000000000000e+00  -2.1252575687279328e-04 8.3735883327152379e-04 0.0000000000000000e+00  -2.2493433263972369e-04 8.3317422404774108e-04 0.0000000000000000e+00  -2.3957273157090099e-04 8.2806474006175644e-04 0.0000000000000000e+00  -2.6244139467038337e-04 8.2163937447651651e-04 0.0000000000000000e+00  -2.9000347641657085e-04 8.0787378915526909e-04 0.0000000000000000e+00  -3.2023668794064017e-04 7.9719042018516642e-04 0.0000000000000000e+00  -3.5462597986827155e-04 7.8145994467631414e-04 0.0000000000000000e+00  -3.8854062004266428e-04 7.6562202754017574e-04 0.0000000000000000e+00  -4.2116288067056939e-04 7.5194195361639755e-04 0.0000000000000000e+00  -4.3820318539233329e-04 8.6703338195635599e-04 0.0000000000000000e+00  -3.9633825362111867e-04 8.6963220492978935e-04 0.0000000000000000e+00  -3.5112052711079833e-04 8.7391882909846599e-04 0.0000000000000000e+00  -3.0525365617293859e-04 8.7195453196067688e-04 0.0000000000000000e+00  -2.6030954268393286e-04 8.6455631631998675e-04 0.0000000000000000e+00  -2.2153404995456320e-04 8.5477762545992184e-04 0.0000000000000000e+00  -1.9152066671579895e-04 8.3801634485588833e-04 0.0000000000000000e+00  -1.6770877922772995e-04 8.1605483106253940e-04 0.0000000000000000e+00  -1.5793926608421443e-04 7.9584273710885220e-04 0.0000000000000000e+00  -1.5761769997900841e-04 7.7352764234317592e-04 0.0000000000000000e+00  -1.6745872028159654e-04 7.5638057363532486e-04 0.0000000000000000e+00  -1.8671853401368377e-04 7.4119487555985479e-04 0.0000000000000000e+00  -2.0936199645703091e-04 7.3255393175659814e-04 0.0000000000000000e+00  -2.3686763966927556e-04 7.3264454040993540e-04 0.0000000000000000e+00  -2.6741676886314527e-04 7.3847408892295475e-04 0.0000000000000000e+00  -2.9566512716517246e-04 7.5496110039288385e-04 0.0000000000000000e+00  -3.2407963974688997e-04 7.7864256848537798e-04 0.0000000000000000e+00  -3.4602600418344670e-04 8.0833625381741684e-04 0.0000000000000000e+00  -3.6196902216196331e-04 8.4617514688578067e-04 0.0000000000000000e+00  -3.7466607598996547e-04 8.8614347329844920e-04 0.0000000000000000e+00  -3.7643960611837614e-04 9.2708329673598180e-04 0.0000000000000000e+00  -3.7224958392154377e-04 9.6846500973463590e-04 0.0000000000000000e+00  -3.6451474524396211e-04 1.0058723116476882e-03 0.0000000000000000e+00  -3.4825956989405492e-04 1.0372873645755176e-03 0.0000000000000000e+00  -3.2879112093535314e-04 1.0613968041647854e-03 0.0000000000000000e+00  -3.0829796374169037e-04 1.0777708368054865e-03 0.0000000000000000e+00  -2.8387425313946679e-04 1.0843680751764135e-03 0.0000000000000000e+00  -2.5989563467165822e-04 1.0791360622743316e-03 0.0000000000000000e+00  -2.3710089353584112e-04 1.0683847499864702e-03 0.0000000000000000e+00  -2.1651973324964292e-04 1.0461402321882299e-03 0.0000000000000000e+00  -1.9458086309423849e-04 1.0140059672656624e-03 0.0000000000000000e+00  -1.7524963609273582e-04 9.7892151231617776e-04 0.0000000000000000e+00  -1.5735906062964004e-04 9.3422079382410675e-04 0.0000000000000000e+00  -1.4206128557859104e-04 8.8647793754993048e-04 0.0000000000000000e+00  -1.2770256404025425e-04 8.3351632205619700e-04 0.0000000000000000e+00  -1.1610003225512751e-04 7.7709596317857910e-04 0.0000000000000000e+00  -1.0644932176930102e-04 7.1908437942657158e-04 0.0000000000000000e+00  -1.0053869098454552e-04 6.6082837226673461e-04 0.0000000000000000e+00  -9.8994638497166008e-05 6.0361114500041900e-04 0.0000000000000000e+00  -1.0211272676143590e-04 5.4925965923693909e-04 0.0000000000000000e+00  -1.0950374304682311e-04 5.0050417603814308e-04 0.0000000000000000e+00  -1.1917574696285214e-04 4.5766068827697809e-04 0.0000000000000000e+00  -1.3116238292603839e-04 4.2429905300112188e-04 0.0000000000000000e+00  -1.4599355955547904e-04 3.9795955109412810e-04 0.0000000000000000e+00  -1.5814733045746695e-04 3.8285642966074025e-04 0.0000000000000000e+00  -1.6981399682123661e-04 3.7641042143156508e-04 0.0000000000000000e+00  -1.7648366606346728e-04 3.7683473648529706e-04 0.0000000000000000e+00  -1.7993675652569035e-04 3.8340858920055381e-04 0.0000000000000000e+00  -1.7912117922377798e-04 3.9357706828220784e-04 0.0000000000000000e+00  -1.7533294421588294e-04 4.0676581450678598e-04 0.0000000000000000e+00  -1.6972322492018102e-04 4.2145801375719145e-04 0.0000000000000000e+00  -1.6165599090989569e-04 4.3577221329678265e-04 0.0000000000000000e+00  -1.5040685415371421e-04 4.5007114116738770e-04 0.0000000000000000e+00  -1.3831824721442616e-04 4.6283231677173844e-04 0.0000000000000000e+00  -1.2256088567262640e-04 4.7024832211578775e-04 0.0000000000000000e+00  -1.0490305204540615e-04 4.7612702729495977e-04 0.0000000000000000e+00  -8.5608788369757264e-05 4.7348487405601684e-04 0.0000000000000000e+00  -6.3077630923331381e-05 4.6389460135519238e-04 0.0000000000000000e+00  -4.3370106321092148e-05 4.4715600039941746e-04 0.0000000000000000e+00  -2.3569214150535955e-05 4.2159132010568693e-04 0.0000000000000000e+00  -6.1054453275606763e-06 3.9094663330040239e-04 0.0000000000000000e+00  9.6369594292470197e-06 3.5326970193263308e-04 0.0000000000000000e+00  2.4834602703508269e-05 3.1077827146221609e-04 0.0000000000000000e+00  3.6055478604614158e-05 2.6538000225201911e-04 0.0000000000000000e+00  4.3959066118507618e-05 2.1565082518392378e-04 0.0000000000000000e+00  4.7533121531591506e-05 1.6791160730045312e-04 0.0000000000000000e+00  4.5289437104077949e-05 1.2153366451660525e-04 0.0000000000000000e+00  4.0348526711486418e-05 7.8539692838919985e-05 0.0000000000000000e+00  3.1558639988741376e-05 4.3271044545402570e-05 0.0000000000000000e+00  1.7857999536445530e-05 2.0254163459864963e-05 0.0000000000000000e+00  -4.6944716283693334e-04 8.3314956355094402e-04 0.0000000000000000e+00  -4.5956476795120966e-04 7.7150956029297573e-04 0.0000000000000000e+00  -1.3955511837914953e-05 4.1083111483987474e-05 0.0000000000000000e+00  -1.9908221138948890e-04 8.1944183818169480e-04 0.0000000000000000e+00  -2.3320224741692327e-04 8.6648045942373179e-04 0.0000000000000000e+00  -4.6621010543749535e-05 2.1459318010531097e-04 0.0000000000000000e+00  -2.9719190940654186e-04 8.2675878623010969e-04 0.0000000000000000e+00  -2.4632874594124478e-04 7.9738055190707038e-04 0.0000000000000000e+00  -6.1594079012234506e-05 3.7779202548863155e-04 0.0000000000000000e+00  -3.3564416922275648e-04 8.4595674422052443e-04 0.0000000000000000e+00  -8.9115182170590492e-05 4.7389068407452964e-04 0.0000000000000000e+00  -1.3025830278051023e-04 4.6235430679988427e-04 0.0000000000000000e+00  -3.1726076019129493e-04 9.1566169270479415e-04 0.0000000000000000e+00  -1.5917765407104544e-04 3.9672808421972294e-04 0.0000000000000000e+00  -3.0385933096666615e-04 1.0240522390256826e-03 0.0000000000000000e+00  -1.7908583357115597e-04 3.6546683432600303e-04 0.0000000000000000e+00  -1.7843520361180204e-04 4.3114173304276013e-04 0.0000000000000000e+00  -2.7690652528164402e-04 1.0881374522849277e-03 0.0000000000000000e+00  -2.5324136364963338e-04 1.0633247520795634e-03 0.0000000000000000e+00  -1.8150008813127113e-04 5.6079719541028651e-04 0.0000000000000000e+00  -2.0206773294393200e-04 7.3702785514390275e-04 0.0000000000000000e+00  -2.3370553448662736e-04 9.5045651479564483e-04 0.0000000000000000e+00  -1.0588888342306684e-04 4.9295659665870358e-04 0.0000000000000000e+00  -1.9506463513490179e-04 8.5854944471049478e-04 0.0000000000000000e+00  -2.1567568750614554e-04 8.3705163406896617e-04 0.0000000000000000e+00  -1.4515677058066131e-04 4.2684988558837556e-04 0.0000000000000000e+00  -1.8100416649014799e-04 3.8480120669525357e-04 0.0000000000000000e+00  -5.4119501841611054e-05 3.0162443435296805e-04 0.0000000000000000e+00  -4.0393943209263822e-04 8.3083851976008673e-04 0.0000000000000000e+00  -3.6550236998767332e-05 1.1943276516612018e-04 0.0000000000000000e+00  -2.6432376459846577e-04 1.0903520209318296e-03 0.0000000000000000e+00  -2.9816723005509938e-04 9.7796986297814486e-04 0.0000000000000000e+00  -2.9841649595070338e-04 8.7281212884677314e-04 0.0000000000000000e+00  -1.6182538059285380e-04 4.9118765192742711e-04 0.0000000000000000e+00  -2.8029566789500423e-04 1.0703971143058966e-03 0.0000000000000000e+00  -2.6774004482166757e-04 8.1265557276411816e-04 0.0000000000000000e+00  -2.5440704528407500e-04 1.0187525623095502e-03 0.0000000000000000e+00  -2.2044556004395204e-04 8.1250588616350687e-04 0.0000000000000000e+00  -1.6958651325574650e-04 6.5086735526352179e-04 0.0000000000000000e+00  -1.7171984325226413e-04 3.7716885860570784e-04 0.0000000000000000e+00  -6.7188789773209594e-05 4.3712580063322298e-04 0.0000000000000000e+00  -2.7384756261185611e-04 8.6525370495527077e-04 0.0000000000000000e+00  -1.8287863097295328e-04 8.2739661630362553e-04 0.0000000000000000e+00  -1.1813439599499013e-04 4.8694618800767842e-04 0.0000000000000000e+00  -1.9637983039211138e-04 8.4089275487761982e-04 0.0000000000000000e+00  -1.2424139822061242e-04 4.7684139194715543e-04 0.0000000000000000e+00  -2.1148749694060119e-04 7.8683608768299093e-04 0.0000000000000000e+00  -2.7647386821152715e-04 7.8413375971984650e-04 0.0000000000000000e+00  -3.2830379113392416e-04 8.4531182868912271e-04 0.0000000000000000e+00  -2.9937900496121309e-04 8.4185587481097851e-04 0.0000000000000000e+00  -9.7376241237252340e-05 4.3039487148559952e-04 0.0000000000000000e+00  -3.0945533523728811e-04 1.0528677737952855e-03 0.0000000000000000e+00  -3.3771898441789771e-04 9.5345584212095031e-04 0.0000000000000000e+00  -2.0407200226267317e-04 4.7247504905232143e-04 0.0000000000000000e+00  -1.6401487174875034e-04 3.8083187414251183e-04 0.0000000000000000e+00  -2.5775410309539611e-04 1.0787231993875782e-03 0.0000000000000000e+00  -2.2995943092230097e-04 1.0317401636737254e-03 0.0000000000000000e+00  -2.2242097933106365e-04 6.2200154080338120e-04 0.0000000000000000e+00  1.8763291430801101e-06 1.8673652101259695e-05 0.0000000000000000e+00  -1.3326029384385429e-05 2.0319631122483393e-05 0.0000000000000000e+00  -2.5714541557677727e-04 9.0923779023467373e-04 0.0000000000000000e+00  -1.7459917646399248e-04 3.6993362661392375e-04 0.0000000000000000e+00  -1.4345787834922511e-04 4.4696411109763082e-04 0.0000000000000000e+00  -1.4438631719871576e-05 2.4935881454677430e-04 0.0000000000000000e+00  -3.2234430968563730e-05 3.4546408121997185e-04 0.0000000000000000e+00  -2.4701340674439156e-04 7.9458167752835204e-04 0.0000000000000000e+00  -1.5806127479488097e-04 4.1375584404668354e-04 0.0000000000000000e+00  -1.6412558148518790e-04 4.0049197809126623e-04 0.0000000000000000e+00  -9.1053768269297271e-05 4.8440694316748644e-04 0.0000000000000000e+00  -2.1391612774882739e-04 8.5882340650955550e-04 0.0000000000000000e+00  -1.9675591016919119e-04 8.5660484224830589e-04 0.0000000000000000e+00  -1.0823279993600084e-04 4.9143946637939754e-04 0.0000000000000000e+00  -1.0256713128538506e-06 1.4460234774364147e-04 0.0000000000000000e+00  -3.7316694736171688e-04 8.0698830863843980e-04 0.0000000000000000e+00  -1.9414390289964297e-04 9.1172041179680876e-04 0.0000000000000000e+00  -1.7408174033989505e-04 7.9773053323889127e-04 0.0000000000000000e+00  -1.2724115747477809e-04 4.5295920639906923e-04 0.0000000000000000e+00  -8.4607748664487973e-05 2.5482142928536536e-04 0.0000000000000000e+00  -9.7158662714007688e-05 3.5657077750147060e-04 0.0000000000000000e+00  -1.8765890575754514e-04 3.6958767764407713e-04 0.0000000000000000e+00  -1.4086831047694840e-04 4.1669658101155618e-04 0.0000000000000000e+00  -2.0088102907135928e-04 4.0230718901764493e-04 0.0000000000000000e+00  3.4503226540279971e-07 8.6693295523811536e-05 0.0000000000000000e+00  -4.2399613232333572e-04 7.9002266362793248e-04 0.0000000000000000e+00  -2.3472863209944323e-04 7.7578730169256330e-04 0.0000000000000000e+00  -3.0132414988641795e-04 7.9750326568551729e-04 0.0000000000000000e+00  -1.0392249243177079e-04 4.6244499594820916e-04 0.0000000000000000e+00  -3.3958286833598678e-04 8.8281449927793941e-04 0.0000000000000000e+00  -2.6109663046459193e-04 8.5105531866241891e-04 0.0000000000000000e+00  -3.3272559275253154e-04 9.9572138022292083e-04 0.0000000000000000e+00  -2.9568054522438234e-04 1.0747601832135406e-03 0.0000000000000000e+00  -1.7390977848494399e-04 3.6989828402280486e-04 0.0000000000000000e+00  -2.7259635981988304e-04 1.0864000950562211e-03 0.0000000000000000e+00  -2.1310443326666561e-04 5.2631021361877002e-04 0.0000000000000000e+00  -2.1561095020362203e-04 9.8902753954887906e-04 0.0000000000000000e+00  -2.3662230602264459e-04 6.8894043314318145e-04 0.0000000000000000e+00  -3.6533820148781335e-04 8.5199152629638003e-04 0.0000000000000000e+00  -1.9856132683591021e-04 8.5128521203715066e-04 0.0000000000000000e+00  -1.1123646537420204e-04 4.8559718296406062e-04 0.0000000000000000e+00  -6.9478786017617084e-05 1.6374651324077094e-04 0.0000000000000000e+00  -4.1824233780816569e-05 8.1229581033120235e-05 0.0000000000000000e+00  -2.6487883703330093e-04 1.0791390311024542e-03 0.0000000000000000e+00  -1.5621552525005143e-04 7.0811349635962247e-04 0.0000000000000000e+00  -2.6726301775163041e-04 1.0899769392597981e-03 0.0000000000000000e+00  -2.7161330642606305e-04 8.3203218039516399e-04 0.0000000000000000e+00  -2.7925367961264299e-04 1.0154224129432609e-03 0.0000000000000000e+00  -2.8688230125806696e-04 9.0802351416258717e-04 0.0000000000000000e+00  -1.4861044720486291e-04 5.4114076322475104e-04 0.0000000000000000e+00  -2.6452684537862090e-04 9.8047541809466541e-04 0.0000000000000000e+00  -1.7589770385234265e-04 3.7052459881540493e-04 0.0000000000000000e+00  -1.5062748738047031e-04 4.5173768208403526e-04 0.0000000000000000e+00  -2.0941260022519089e-04 8.2697636910831758e-04 0.0000000000000000e+00  -1.6957915438085180e-04 3.8986171261792834e-04 0.0000000000000000e+00  -2.3452315691050452e-04 8.1274729720978234e-04 0.0000000000000000e+00  -6.6872422244300010e-05 4.5738604587310604e-04 0.0000000000000000e+00  -4.3278564521573308e-05 4.0274654860946260e-04 0.0000000000000000e+00  -3.0605494872930269e-04 8.6438537456196181e-04 0.0000000000000000e+00  -2.3652540750779207e-04 8.6663799684788957e-04 0.0000000000000000e+00  -2.8503497045271887e-04 8.4816002957095553e-04 0.0000000000000000e+00  -2.9242192572846818e-04 9.4079962354319373e-04 0.0000000000000000e+00  -2.6603385337067192e-04 1.0959795533643450e-03 0.0000000000000000e+00  -2.4950803004072925e-04 8.1222716033896682e-04 0.0000000000000000e+00  -2.7973443554710962e-04 1.0451410190167865e-03 0.0000000000000000e+00  -2.6253152436763312e-04 1.0540083724197068e-03 0.0000000000000000e+00  -1.5042052006270122e-04 5.9379056511790339e-04 0.0000000000000000e+00  -1.1409005136892725e-04 4.9402618891351434e-04 0.0000000000000000e+00  -1.7776881896024001e-04 8.3361984070313771e-04 0.0000000000000000e+00  -1.8550680389658531e-04 8.0323043624950076e-04 0.0000000000000000e+00  -1.2071023539167432e-04 4.7661010147950257e-04 0.0000000000000000e+00  -2.4343672439227902e-04 1.0608093156065318e-03 0.0000000000000000e+00  -1.3711882727904793e-04 4.6159781263039110e-04 0.0000000000000000e+00  -4.5186564976176790e-06 1.241658737