<?xml version="1.0"?>
<VTKFile type="UnstructuredGrid"  version="0.1"  >
<UnstructuredGrid>
<Piece  NumberOfPoints="439" NumberOfCells="725">
<Points>
<DataArray  type="Float64"  NumberOfComponents="3"  format="ascii">0.5998418027395789 0.1820905494605366 0  0.6001114137567771 0.2020922051213483 0  0.2489897949 0.21 0  0.2489897949 0.19 0  0.5999766099801009 0.1920913442304693 0  0.2496355385699469 0.2060260530378829 0  0.249959460510575 0.2020130349814059 0  0.2499594605105767 0.1979869650186357 0  0.24963553856995 0.1939739469621422 0  0.25396088465008 0.2099752516531547 0  0.2589332775424448 0.20994886090173 0  0.2639047667322331 0.2099157741438611 0  0.2688739659349577 0.2098630545603554 0  0.2738408389131959 0.2098005577928107 0  0.2788077571779123 0.2097240159651012 0  0.2837715712689113 0.2096410295381935 0  0.2887325096950402 0.2095463181930219 0  0.2936927601552486 0.209443088453529 0  0.298651028622956 0.2093318222838335 0  0.3036092495310278 0.2092105944526839 0  0.308566638055088 0.2090880822765794 0  0.3135207558666342 0.2089551483263788 0  0.3184760739731647 0.2088176059563162 0  0.3234279620356538 0.2086756967144898 0  0.3283794035547736 0.2085284237141504 0  0.3333294351038719 0.2083781818387246 0  0.3382782571345226 0.2082233725001381 0  0.3432257760113149 0.2080672970047252 0  0.3481724125095474 0.2079081834343539 0  0.3531180318699417 0.2077473289361954 0  0.3580627107121883 0.2075853099152966 0  0.3630067350569487 0.2074218033684863 0  0.3679501911156733 0.2072583829495453 0  0.3728926980812572 0.2070942079960046 0  0.3778346557637967 0.2069304270367961 0  0.3827759245160613 0.206766967904101 0  0.3877166735963193 0.2066040993589155 0  0.3926570351727469 0.2064423486995785 0  0.3975965440901686 0.2062826494174393 0  0.4025355759072972 0.2061233475078064 0  0.4074746327082455 0.2059666394386217 0  0.4124129697188717 0.2058127699540608 0  0.4173509404571367 0.2056597098743334 0  0.4222891141346532 0.2055104073206899 0  0.427226142987732 0.2053631631788745 0  0.4321638383290973 0.2052191877710734 0  0.437100185200461 0.2050785904956791 0  0.4420374198704302 0.2049406832290233 0  0.4469746180546301 0.2048067250700826 0  0.4519112572298463 0.2046757884547012 0  0.4568474781126775 0.2045485615808376 0  0.4617845442198185 0.2044250648349088 0  0.466721010469238 0.2043049215528821 0  0.4716572570606014 0.2041887604345358 0  0.4765944407475493 0.2040764289483732 0  0.4815312853837579 0.2039674492745835 0  0.4864680107790578 0.2038624017555616 0  0.4914056895131044 0.2037608509913438 0  0.4963431626633749 0.2036624608895342 0  0.5012806318084764 0.2035676801991159 0  0.5062190509944642 0.2034761002315899 0  0.5111573978386431 0.2033872887055883 0  0.5160958844299552 0.2033016311081749 0  0.5210352981646343 0.2032186604232596 0  0.5259746435571132 0.2031380137431962 0  0.5309142821093852 0.203059871174296 0  0.5358545211954001 0.2029838458813342 0  0.5407953926341402 0.2029094421242283 0  0.5457368310772961 0.2028370265808367 0  0.5506784727963472 0.2027662888798962 0  0.5556202893967889 0.2026958599423963 0  0.5605627347113843 0.2026271304671643 0  0.5655051885835086 0.2025590765815061 0  0.5704482484250328 0.2024915998625156 0  0.575391621329031 0.2024248143397095 0  0.5803351958665404 0.2023580906728232 0  0.5852790774186079 0.2022916313651636 0  0.5902230985660408 0.2022252679575684 0  0.5951672195730574 0.2021587426325171 0  0.5948975645430156 0.1821571457570667 0  0.5899532260617933 0.1822236723946106 0  0.5850087973533769 0.182290088484364 0  0.5800641517513827 0.1823565582851344 0  0.5751192788031215 0.1824232531375811 0  0.5701741637905884 0.1824900754837044 0  0.5652286803796287 0.1825575451433068 0  0.5602826164658774 0.182625637979867 0  0.5553364802536981 0.1826943732505819 0  0.5503897615971797 0.1827644655187078 0  0.5454426831495414 0.1828353465393113 0  0.540495475491206 0.1829080495219333 0  0.5355475198181265 0.1829828937427119 0  0.5305990778354294 0.1830582242139168 0  0.525650657631856 0.1831365197424278 0  0.5207013299293672 0.1832178675560826 0  0.5157515346992111 0.1832999589390382 0  0.5108021013366716 0.1833859631354183 0  0.5058517094747592 0.1834756280588682 0  0.5009008645856363 0.1835662021271888 0  0.4959506500929519 0.1836614537780756 0  0.4909995054164178 0.1837608823549112 0  0.48604796030771 0.1838613419245577 0  0.4810973166106433 0.1839670017529149 0  0.4761458223816291 0.1840771941623465 0  0.4711940515973451 0.1841888931899922 0  0.4662429018128081 0.1843053854816771 0  0.4612912983688776 0.1844266867735866 0  0.456339900337111 0.1845491216654641 0  0.4513899002799938 0.1846767641625051 0  0.4464389703363756 0.1848093804186105 0  0.4414880281860651 0.1849429544832916 0  0.4365379971597894 0.1850816623204035 0  0.4315886416045814 0.1852224679036584 0  0.4266396253773083 0.1853668197363905 0  0.4216913286358555 0.185514715047546 0  0.4167428524622587 0.1856645285051428 0  0.4117951701307883 0.1858173821665055 0  0.4068477206862205 0.185972334094308 0  0.4019008317430571 0.1861295795544695 0  0.3969548045841034 0.1862887166398521 0  0.392009689283444 0.1864492271602134 0  0.3870651726248878 0.1866112062859344 0  0.3821208667768407 0.1867741559461988 0  0.3771776251082183 0.1869377005533486 0  0.3722350797843723 0.1871018491198989 0  0.3672931991272372 0.187265940658571 0  0.3623520356708084 0.1874294889502975 0  0.3574115216150894 0.1875926731313564 0  0.3524716804213346 0.1877546709043297 0  0.3475332305565187 0.1879158032242714 0  0.3425949905978467 0.1880745883984794 0  0.3376587275403503 0.1882309993387277 0  0.3327220237114817 0.1883847401119013 0  0.3277868884762221 0.1885336931938086 0  0.3228528012019037 0.188681376795212 0  0.317919189874595 0.1888230554292999 0  0.3129889183930335 0.1889602014385607 0  0.3080573609321784 0.1890921761136163 0  0.3031277958689194 0.1892161441349459 0  0.298198637584591 0.1893352702280122 0  0.2932705160281496 0.1894455585934415 0  0.2883463559976397 0.1895496429597762 0  0.2834201113323537 0.189643852176409 0  0.2784990235677599 0.1897289951249687 0  0.2735764862253007 0.189801140779098 0  0.2686589418922094 0.1898625202338867 0  0.2637400159989418 0.1899148956970083 0  0.258822027789982 0.1899527613934151 0  0.2539055655570668 0.1899739188322659 0  0.5999091801777364 0.1870909466310853 0  0.60004405181609 0.1970917703727347 0  0.2589769299344635 0.2005240869169671 0  0.5431178132557389 0.1928703154969987 0  0.5682132329874416 0.1924890443299505 0  0.2774620225835142 0.2005555060563166 0  0.5138163231308212 0.1932356807264539 0  0.5286493791023936 0.192991501121356 0  0.2944945807265442 0.1987252555627995 0  0.5827470196186145 0.1918656649526597 0  0.3104087295742441 0.1990134881580589 0  0.3370155659268061 0.1990914209772964 0  0.4989832356482469 0.1935050746422332 0  0.3552662943539906 0.1976718529077624 0  0.4841503117848694 0.1938039625301431 0  0.3707174365122002 0.1971738357272825 0  0.3898619644680173 0.1965252167898504 0  0.4689396601832572 0.1937830720063528 0  0.4541219713383497 0.1946078582556573 0  0.4043264984983465 0.1961544043326174 0  0.4195181236051105 0.1955832960767526 0  0.4386663872110851 0.1950088557949965 0  0.320242092406831 0.1987783802177351 0  0.5583781295901329 0.1926443689487355 0  0.4280279209846903 0.1951777920099236 0  0.3467578637205661 0.1981012352465973 0  0.3813538291737437 0.1969570557302214 0  0.2860675315939372 0.1996478060744366 0  0.5910745548932671 0.1904555309609318 0  0.268005595675837 0.201564176191699 0  0.4615931728983255 0.1966709983738248 0  0.4912482499045034 0.1960066038164189 0  0.5060767581310732 0.1957221631182697 0  0.3972037027097415 0.1940338703375048 0  0.4764203720644541 0.196322119657483 0  0.5209059885011504 0.1954653065423249 0  0.4467667826413668 0.1970534167178863 0  0.5357359552796847 0.1952312916427966 0  0.4120343339261268 0.1935621065786467 0  0.3626061646176185 0.1951772298356354 0  0.3033157940282325 0.1969733279899891 0  0.575224686463759 0.1901729143959498 0  0.5503904393984305 0.1898932656518217 0  0.3282696086107022 0.2014042426288645 0  0.5484459032717673 0.1966350648360535 0  0.3301123751874068 0.1946317952010054 0  0.5378328008068479 0.1890728648388874 0  0.5229947449963994 0.1893039805660364 0  0.5081554754032914 0.1895572499665615 0  0.5774990575549726 0.196269128798051 0  0.3012701544576542 0.2031503068872342 0  0.4784745071149805 0.1901485798338067 0  0.4933152392381915 0.1898375086728335 0  0.3952100020445977 0.2002282661397166 0  0.3606159050726348 0.2013725024086572 0  0.459251001984309 0.1906009897641909 0  0.4487939541207704 0.1908705766788783 0  0.4100335388041748 0.1997542969881798 0  0.2557745838539374 0.1960726698261724 0  0.2550240548542396 0.2034322215083951 0  0.4348755001834992 0.1989073250711296 0  0.3744907538042078 0.1932574824262946 0  0.3404915989865704 0.1941951523848519 0  0.2812349278747262 0.1957416221435369 0  0.2911897809354359 0.1955841415192138 0  0.4247537189741597 0.1993827073450592 0  0.3500219792555627 0.1938878393412345 0  0.384615090808856 0.1927419752227239 0  0.3165231185882618 0.1950314941786412 0  0.5621810656019373 0.1963837078595677 0  0.562359970963812 0.1886737502981465 0  0.3163395430756303 0.2027490076501114 0  0.2710393210921834 0.1958178509841793 0  0.5873408365034927 0.1969852710580786 0  0.4345045276067875 0.1906042556375536 0  0.424173823417737 0.191316541818157 0  0.3403944139768347 0.2029507147747673 0  0.280945159530726 0.2044744608569494 0  0.291503335869186 0.2042779141283831 0  0.3748984053378426 0.201558540794942 0  0.3500735063364123 0.203020253565067 0  0.3846723719208604 0.2018755143149069 0  0.2647825078220991 0.1961269391378282 0  0.5943554324069097 0.1962096056024374 0  0.5319993256309494 0.1886809111801029 0  0.5171602471590852 0.1889201822416413 0  0.3070974450138671 0.2034762649552573 0  0.5023198022867783 0.1891835602382474 0  0.5716941251773107 0.1968195795648617 0  0.4874784173929144 0.1894755593493389 0  0.4726801058647445 0.1897940969883337 0  0.3664540687849803 0.201671886891
[...]
<PointData  Vectors="d"> 
<DataArray  type="Float64"  Name="d"  NumberOfComponents="3" format="ascii">-1.5819726042102440e-04 -7.9094505394634688e-03 0.0000000000000000e+00  1.1141375677717031e-04 -7.9077948786517201e-03 0.0000000000000000e+00  0.0000000000000000e+00 0.0000000000000000e+00 0.0000000000000000e+00  0.0000000000000000e+00 0.0000000000000000e+00 0.0000000000000000e+00  -2.3390019899030487e-05 -7.9086557695307574e-03 0.0000000000000000e+00  0.0000000000000000e+00 0.0000000000000000e+00 0.0000000000000000e+00  0.0000000000000000e+00 0.0000000000000000e+00 0.0000000000000000e+00  0.0000000000000000e+00 0.0000000000000000e+00 0.0000000000000000e+00  0.0000000000000000e+00 0.0000000000000000e+00 0.0000000000000000e+00  2.7284044450701629e-05 -2.4748346845280894e-05 0.0000000000000000e+00  5.5871231190644910e-05 -5.1139098270040278e-05 0.0000000000000000e+00  8.3554715341014173e-05 -8.4225856138954775e-05 0.0000000000000000e+00  1.0894821242772411e-04 -1.3694543964462734e-04 0.0000000000000000e+00  1.3201548503898679e-04 -1.9944220718933254e-04 0.0000000000000000e+00  1.5512804413695823e-04 -2.7598403489874346e-04 0.0000000000000000e+00  1.7513642951761456e-04 -3.5897046180648955e-04 0.0000000000000000e+00  1.9226915002356495e-04 -4.5368180697813925e-04 0.0000000000000000e+00  2.0871390459641510e-04 -5.5691154647102945e-04 0.0000000000000000e+00  2.2317666668518211e-04 -6.6817771616654973e-04 0.0000000000000000e+00  2.3759186912812708e-04 -7.8940554731605291e-04 0.0000000000000000e+00  2.5117468756994651e-04 -9.1191772342051364e-04 0.0000000000000000e+00  2.6148679349764439e-04 -1.0448516736211581e-03 0.0000000000000000e+00  2.7299919440978130e-04 -1.1823940436837526e-03 0.0000000000000000e+00  2.8108155128062193e-04 -1.3243032855101504e-03 0.0000000000000000e+00  2.8871736478193211e-04 -1.4715762858496079e-03 0.0000000000000000e+00  2.9494320825115052e-04 -1.6218181612753545e-03 0.0000000000000000e+00  2.9995953329423183e-04 -1.7766274998618778e-03 0.0000000000000000e+00  3.0367270445736316e-04 -1.9327029952748253e-03 0.0000000000000000e+00  3.0650349707140673e-04 -2.0918165656461174e-03 0.0000000000000000e+00  3.0831715184724193e-04 -2.2526710638046178e-03 0.0000000000000000e+00  3.0919028847558564e-04 -2.4146900847034523e-03 0.0000000000000000e+00  3.0940892761763792e-04 -2.5781966315137381e-03 0.0000000000000000e+00  3.0905928072378909e-04 -2.7416170504547224e-03 0.0000000000000000e+00  3.0776054067844702e-04 -2.9057920039954332e-03 0.0000000000000000e+00  3.0591251760904306e-04 -3.0695729632038110e-03 0.0000000000000000e+00  3.0337556424928308e-04 -3.2330320958990065e-03 0.0000000000000000e+00  3.0031893888552108e-04 -3.3959006410844953e-03 0.0000000000000000e+00  2.9687480968372738e-04 -3.5576513004215412e-03 0.0000000000000000e+00  2.9257802149807116e-04 -3.7173505825606750e-03 0.0000000000000000e+00  2.8780413299858606e-04 -3.8766524921936079e-03 0.0000000000000000e+00  2.8305522833472222e-04 -4.0333605613783316e-03 0.0000000000000000e+00  2.7758653334059057e-04 -4.1872300459391519e-03 0.0000000000000000e+00  2.7175156598485169e-04 -4.3402901256666300e-03 0.0000000000000000e+00  2.6611953788959250e-04 -4.4895926793101365e-03 0.0000000000000000e+00  2.5934268534020741e-04 -4.6368368211255062e-03 0.0000000000000000e+00  2.5323232107210390e-04 -4.7808122289266369e-03 0.0000000000000000e+00  2.4577348678374517e-04 -4.9214095043208948e-03 0.0000000000000000e+00  2.3920245109728113e-04 -5.0593167709766448e-03 0.0000000000000000e+00  2.3259492963332925e-04 -5.1932749299173683e-03 0.0000000000000000e+00  2.2542839920173261e-04 -5.3242115452988327e-03 0.0000000000000000e+00  2.1784357639106656e-04 -5.4514384191624351e-03 0.0000000000000000e+00  2.1110397790249507e-04 -5.5749351650912207e-03 0.0000000000000000e+00  2.0376452167149037e-04 -5.6950784471179374e-03 0.0000000000000000e+00  1.9620540740157729e-04 -5.8112395654642025e-03 0.0000000000000000e+00  1.8958338868254953e-04 -5.9235710516267470e-03 0.0000000000000000e+00  1.8262231924454672e-04 -6.0325507254164832e-03 0.0000000000000000e+00  1.7554200888174982e-04 -6.1375982444383985e-03 0.0000000000000000e+00  1.6941503729780432e-04 -6.2391490086562496e-03 0.0000000000000000e+00  1.6308248191385113e-04 -6.3375391104657664e-03 0.0000000000000000e+00  1.5674592138671426e-04 -6.4323198008840732e-03 0.0000000000000000e+00  1.5135940171489946e-04 -6.5238997684101520e-03 0.0000000000000000e+00  1.4590054025577395e-04 -6.6127112944116785e-03 0.0000000000000000e+00  1.4058142595163475e-04 -6.6983688918251186e-03 0.0000000000000000e+00  1.3618945499284865e-04 -6.7813395767404461e-03 0.0000000000000000e+00  1.3172914181312025e-04 -6.8619862568038165e-03 0.0000000000000000e+00  1.2756198844618728e-04 -6.9401288257040132e-03 0.0000000000000000e+00  1.2399536880145336e-04 -7.0161541186657831e-03 0.0000000000000000e+00  1.2106110190361967e-04 -7.0905578757716470e-03 0.0000000000000000e+00  1.1869383944308919e-04 -7.1629734191633156e-03 0.0000000000000000e+00  1.1652985285635945e-04 -7.2337111201038447e-03 0.0000000000000000e+00  1.1454074764322389e-04 -7.3041400576036846e-03 0.0000000000000000e+00  1.1318035659581287e-04 -7.3728695328356729e-03 0.0000000000000000e+00  1.1182852306046262e-04 -7.4409234184938866e-03 0.0000000000000000e+00  1.1108265892120381e-04 -7.5084001374844068e-03 0.0000000000000000e+00  1.1064985728511511e-04 -7.5751856602905392e-03 0.0000000000000000e+00  1.1041868915698243e-04 -7.6419093271767706e-03 0.0000000000000000e+00  1.1049453557375542e-04 -7.7083686348363330e-03 0.0000000000000000e+00  1.1070997735999246e-04 -7.7747320424316514e-03 0.0000000000000000e+00  1.1102527871697473e-04 -7.8412573674829077e-03 0.0000000000000000e+00  -1.5862975136761621e-04 -7.8428542429332549e-03 0.0000000000000000e+00  -1.5916252696472597e-04 -7.7763276053894300e-03 0.0000000000000000e+00  -1.5978552974247568e-04 -7.7099115156360528e-03 0.0000000000000000e+00  -1.6062542608994272e-04 -7.6434417148656076e-03 0.0000000000000000e+00  -1.6169266872979293e-04 -7.5767468624188964e-03 0.0000000000000000e+00  -1.6300197564256670e-04 -7.5099245162955752e-03 0.0000000000000000e+00  -1.6467968098931703e-04 -7.4424548566931967e-03 0.0000000000000000e+00  -1.6693788911141538e-04 -7.3743620201329619e-03 0.0000000000000000e+00  -1.6926839565991898e-04 -7.3056267494180961e-03 0.0000000000000000e+00  -1.7218134652382776e-04 -7.2355344812922136e-03 0.0000000000000000e+00  -1.7545408856280012e-04 -7.1646534606886747e-03 0.0000000000000000e+00  -1.7885604129900488e-04 -7.0919504780666658e-03 0.0000000000000000e+00  -1.8300600876958420e-04 -7.0171062572880914e-03 0.0000000000000000e+00  -1.8764228583358929e-04 -6.9417757860832001e-03 0.0000000000000000e+00  -1.9225678380681540e-04 -6.8634802575721614e-03 0.0000000000000000e+00  -1.9777878065722269e-04 -6.7821324439174121e-03 0.0000000000000000e+00  -2.0376830521073413e-04 -6.7000410609617811e-03 0.0000000000000000e+00  -2.0939596215098285e-04 -6.6140368645817441e-03 0.0000000000000000e+00  -2.1598211845847405e-04 -6.5243719411318011e-03 0.0000000000000000e+00  -2.2302130194425281e-04 -6.4337978728112267e-03 0.0000000000000000e+00  -2.2943008902008203e-04 -6.3385462219243413e-03 0.0000000000000000e+00  -2.3676905993526330e-04 -6.2391176450888415e-03 0.0000000000000000e+00  -2.4450846302438001e-04 -6.1386580754423112e-03 0.0000000000000000e+00  -2.5134645446132171e-04 -6.0329982470851244e-03 0.0000000000000000e+00  -2.5903497786748479e-04 -5.9228058376534914e-03 0.0000000000000000e+00  -2.6700005652315333e-04 -5.8111068100078515e-03 0.0000000000000000e+00  -2.7434413544737981e-04 -5.6946145183228679e-03 0.0000000000000000e+00  -2.8214187375739854e-04 -5.5733132264134434e-03 0.0000000000000000e+00  -2.8973419989939287e-04 -5.4508783345359165e-03 0.0000000000000000e+00  -2.9592855138703877e-04 -5.3232358374948538e-03 0.0000000000000000e+00  -3.0305278939600505e-04 -5.1906195813894856e-03 0.0000000000000000e+00  -3.1018923408139088e-04 -5.0570455167083788e-03 0.0000000000000000e+00  -3.1641455474028902e-04 -4.9183376795965553e-03 0.0000000000000000e+00  -3.2196440433170174e-04 -4.7775320963415876e-03 0.0000000000000000e+00  -3.2717492597836127e-04 -4.6331802636094925e-03 0.0000000000000000e+00  -3.3166596179274135e-04 -4.4852849524540106e-03 0.0000000000000000e+00  -3.3633642974690778e-04 -4.3354714948571835e-03 0.0000000000000000e+00  -3.4021305557109863e-04 -4.1826178334945108e-03 0.0000000000000000e+00  -3.4385679447901515e-04 -4.0276659056919630e-03 0.0000000000000000e+00  -3.4694003199069835e-04 -3.8704204455305017e-03 0.0000000000000000e+00  -3.4916148528675014e-04 -3.7112833601478791e-03 0.0000000000000000e+00  -3.5047108031078465e-04 -3.5507728397866016e-03 0.0000000000000000e+00  -3.5118203322036338e-04 -3.3887937140656549e-03 0.0000000000000000e+00  -3.5168217564170059e-04 -3.2258440538011721e-03 0.0000000000000000e+00  -3.5111813860752084e-04 -3.0622994466514303e-03 0.0000000000000000e+00  -3.4985775680503386e-04 -2.8981508801011269e-03 0.0000000000000000e+00  -3.4793270827125243e-04 -2.7340593414290470e-03 0.0000000000000000e+00  -3.4529045905300313e-04 -2.5705110497025248e-03 0.0000000000000000e+00  -3.4199880912140669e-04 -2.4073268686436115e-03 0.0000000000000000e+00  -3.3803429725440200e-04 -2.2453290956702858e-03 0.0000000000000000e+00  -3.3267845641225336e-04 -2.0841967757286159e-03 0.0000000000000000e+00  -3.2711270944536200e-04 -1.9254116015206021e-03 0.0000000000000000e+00  -3.1957006130326138e-04 -1.7690006612723671e-03 0.0000000000000000e+00  -3.1246818453341610e-04 -1.6152598880987273e-03 0.0000000000000000e+00  -3.0379771415307535e-04 -1.4663068061913447e-03 0.0000000000000000e+00  -2.9407928281342940e-04 -1.3186232047879536e-03 0.0000000000000000e+00  -2.8388490446412082e-04 -1.1769445707000251e-03 0.0000000000000000e+00  -2.7035068036766746e-04 -1.0397985614392959e-03 0.0000000000000000e+00  -2.5810243557964876e-04 -9.0782388638370774e-04 0.0000000000000000e+00  -2.4386179320034110e-04 -7.8385586505404713e-04 0.0000000000000000e+00  -2.2921437189027781e-04 -6.6472977198779517e-04 0.0000000000000000e+00  -2.1353022269339058e-04 -5.5444140655854272e-04 0.0000000000000000e+00  -1.9388454754767654e-04 -4.5035704022379210e-04 0.0000000000000000e+00  -1.7632350717581755e-04 -3.5614782359104895e-04 0.0000000000000000e+00  -1.5360556611180703e-04 -2.7100487503123956e-04 0.0000000000000000e+00  -1.3233720292360379e-04 -1.9885922090194058e-04 0.0000000000000000e+00  -1.0607583037653762e-04 -1.3747976611336096e-04 0.0000000000000000e+00  -8.1196018005809707e-05 -8.5104302991722143e-05 0.0000000000000000e+00  -5.5378521327303393e-05 -4.7238606584884438e-05 0.0000000000000000e+00  -2.8035048591029853e-05 -2.6081167734114670e-05 0.0000000000000000e+00  -9.0819822263602732e-05 -7.9090533688930438e-03 0.0000000000000000e+00  4.4051816089979694e-05 -7.9082296272382120e-03 0.0000000000000000e+00  3.5034028142165305e-06 -2.8302425873212347e-05 0.0000000000000000e+00  -2.8421129568836970e-05 -7.1296845029702868e-03 0.0000000000000000e+00  -2.6556489374580347e-05 -7.4814142509482167e-03 0.0000000000000000e+00  1.0629871711726292e-05 -2.3868588587598830e-04 0.0000000000000000e+00  -3.3260246075754422e-05 -6.6666619226380007e-03 0.0000000000000000e+00  -3.1621391344498210e-05 -6.9108415277408823e-03 0.0000000000000000e+00  -1.6314479220468985e-05 -5.6593527773905554e-04 0.0000000000000000e+00  -3.1063519878171678e-05 -7.6773151476751652e-03 0.0000000000000000e+00  -4.1100826814531076e-06 -9.5697042283889185e-04 0.0000000000000000e+00  1.5390384951026683e-05 -1.7380402661002772e-03 0.0000000000000000e+00  -3.4930611799058001e-05 -6.3972680068569961e-03 0.0000000000000000e+00  -1.5323216913750700e-05 -2.3281470922983682e-03 0.0000000000000000e+00  -3.6437358323178045e-05 -6.0983801189418568e-03 0.0000000000000000e+00  -1.9934878354849628e-05 -2.8404019680864120e-03 0.0000000000000000e+00  -2.6293042232185797e-05 -3.4747832102323527e-03 0.0000000000000000e+00  -4.6094866016229990e-05 -5.7586004193166005e-03 0.0000000000000000e+00  -3.5760345846981868e-05 -5.3921417442524622e-03 0.0000000000000000e+00  -2.6992903486651347e-05 -3.9432530183070545e-03 0.0000000000000000e+00  -3.2968138846391280e-05 -4.4167039233531180e-03 0.0000000000000000e+00  -3.5590653366070844e-05 -4.9769065096807426e-03 0.0000000000000000e+00  -5.1826188393006005e-06 -1.2305039969047716e-03 0.0000000000000000e+00  -2.7224517952219511e-05 -7.3467468366222102e-03 0.0000000000000000e+00  -3.8793704023036503e-05 -4.6711128109005332e-03 0.0000000000000000e+00  -8.1309059812621422e-06 -2.0498599328402111e-03 0.0000000000000000e+00  -1.8805392147068450e-05 -3.1940394492305782e-03 0.0000000000000000e+00  -8.0609827260417365e-07 -3.9373849618156857e-04 0.0000000000000000e+00  -4.7826284852411982e-05 -7.7893849739426044e-03 0.0000000000000000e+00  1.6279529974271822e-05 -1.1094945502998826e-04 0.0000000000000000e+00  1.9732655697614362e-05 -5.5793649549754770e-03 0.0000000000000000e+00  1.1975428158119325e-05 -6.2437595123902775e-03 0.0000000000000000e+00  9.0665378749647649e-06 -6.5282002105421311e-03 0.0000000000000000e+00  -1.0026335893593355e-04 -3.7157663336917042e-03 0.0000000000000000e+00  1.5514704964504145e-05 -5.9282436713221044e-03 0.0000000000000000e+00  6.8797911049058650e-06 -6.7850567864934774e-03 0.0000000000000000e+00  2.4759515601221909e-05 -5.1969466109137268e-03 0.0000000000000000e+00  5.4294527998734246e-06 -7.0190716860232504e-03 0.0000000000000000e+00  -1.0104925940487098e-04 -4.1875300925509002e-03 0.0000000000000000e+00  -9.1161511716718685e-05 -2.5724068355565274e-03 0.0000000000000000e+00  -5.5863633663649449e-05 -7.7630868119780852e-04 0.0000000000000000e+00  -5.6285008063885003e-05 -7.5767222752004997e-03 0.0000000000000000e+00  -6.9416520625565392e-05 -7.2352128219449457e-03 0.0000000000000000e+00  7.6835396018082441e-05 -1.4672788973760964e-03 0.0000000000000000e+00  2.8001222021186356e-05 -7.2052567334227905e-03 0.0000000000000000e+00  -1.2235189659197149e-04 -1.5278832295436702e-03 0.0000000000000000e+00  -8.8284416963449591e-05 -7.0523168255236281e-03 0.0000000000000000e+00  -9.4923110565842844e-05 -6.8212010983693281e-03 0.0000000000000000e+00  -1.0277558683069797e-04 -6.5679316978482748e-03 0.0000000000000000e+00  2.7526686263167133e-05 -7.6056895375376955e-03 0.0000000000000000e+00  8.9056192699400974e-05 -7.2451144835947168e-04 0.0000000000000000e+00  -1.2090964143055509e-04 -5.9766018305973433e-03 0.0000000000000000e+00  -1.1159463507557342e-04 -6.2876729915727824e-03 0.0000000000000000e+00  9.6595372834721395e-05 -3.6465521958800175e-03 0.0000000000000000e+00  1.0913834022305623e-04 -2.5023159269378730e-03 0.0000000000000000e+00  -1.3187886140563748e-04 -5.5241919002084238e-03 0.0000000000000000e+00  -1.3862840191009533e-04 -5.2546049855223629e-03 0.0000000000000000e+00  8.8715015552834946e-05 -4.1205213474192898e-03 0.0000000000000000e+00  -1.1716126259708336e-05 -1.3167199557030944e-05 0.0000000000000000e+00  9.3188232997483523e-06 -1.0421490716356444e-05 0.0000000000000000e+00  7.2352537030363837e-05 -4.8664326930258420e-03 0.0000000000000000e+00  -1.4544780420218490e-04 -2.9687598095606968e-03 0.0000000000000000e+00  -1.3423759986001796e-04 -1.8516398091370848e-03 0.0000000000000000e+00  -6.5240244257243723e-05 -3.0517005051321818e-04 0.0000000000000000e+00  -7.8857808553401432e-05 -4.9749134571435783e-04 0.0000000000000000e+00  8.3185392170482487e-05 -4.5705004608951952e-03 0.0000000000000000e+00  -1.4019647735023758e-04 -2.1589528529532584e-03 0.0000000000000000e+00  -1.5372486341333366e-04 -3.3048169715120292e-03 0.0000000000000000e+00  -1.0924995009422874e-04 -1.1279643847287965e-03 0.0000000000000000e+00  2.6064496596348837e-05 -7.3979414003313738e-03 0.0000000000000000e+00  -8.1416738165003251e-05 -7.4024420629912003e-03 0.0000000000000000e+00  1.0003949231751437e-04 -1.1189480923577582e-03 0.0000000000000000e+00  -4.9392328578842070e-05 -1.5179334840445858e-04 0.0000000000000000e+00  3.9398863132253954e-05 -7.7375170450037657e-03 0.0000000000000000e+00  -1.6342903748337506e-04 -4.8608903176977115e-03 0.0000000000000000e+00  -1.5582699006160691e-04 -4.5591562757492004e-03 0.0000000000000000e+00  1.3846289348239140e-04 -1.8433352543250241e-03 0.0000000000000000e+00  7.6666854632667099e-05 -2.9978092431622830e-04 0.0000000000000000e+00  9.5632555313724009e-05 -5.0303757871244463e-04 0.0000000000000000e+00  1.2701272734943106e-04 -2.9763132499133526e-03 0.0000000000000000e+00  1.5185744652563584e-04 -2.1550877535634560e-03 0.0000000000000000e+00  1.4408309163064798e-04 -3.2998270037290617e-03 0.0000000000000000e+00  -3.1978723406138721e-05 -8.2035160809201807e-05 0.0000000000000000e+00  3.0668040620180083e-05 -7.8319367564807750e-03 0.0000000000000000e+00  -9.7935414665104476e-05 -6.9635987249842381e-03 0.0000000000000000e+00  -1.0559676968757360e-04 -6.7243276634440389e-03 0.0000000000000000e+00  1.0511945360135966e-04 -8.7053843199780788e-04 0.0000000000000000e+00  -1.1462452514812473e-04 -6.4609496668389657e-03 0.0000000000000000e+00  3.3821603875485187e-05 -7.5272238224143957e-03 0.0000000000000000e+00  -1.2459230215968150e-04 -6.1689505557441793e-03 0.0000000000000000e+00  -1.3509166488179472e-04 -5.8461499026556986e-03 0.0000000000000000e+00  1.2389113222655013e-04 -2.6955679727743835e-03 0.0000000000000000e+00  -1.4077384301886223e-04 -5.6660364405204354e-03 0.0000000000000000e+00  1.0923813075706781e-04 -3.8346429435148744e-03 0.0000000000000000e+00  -1.5415991877851411e-04 -5.0970852769092129e-03 0.0000000000000000e+00  1.0046219698787001e-04 -4.3008275292767979e-03 0.0000000000000000e+00  -8.2793895616783242e-05 -7.7275743438763632e-03 0.0000000000000000e+00  3.5963878492261969e-05 -7.2867841189370036e-03 0.0000000000000000e+00  -1.3451949958306683e-04 -1.3551128348311646e-03 0.0000000000000000e+00  6.0044793272679576e-05 -1.6307795776179928e-04 0.0000000000000000e+00  3.2250769693807582e-05 -6.5913183643147012e-05 0.0000000000000000e+00  8.2320758955941846e-05 -5.4592400347591432e-03 0.0000000000000000e+00  -1.6921990841667182e-04 -4.3296988225320736e-03 0.0000000000000000e+00  7.2485699777866100e-05 -5.8189641058146776e-03 0.0000000000000000e+00  4.7203355956505430e-05 -6.7041906253897249e-03 0.0000000000000000e+00  6.1445362984817394e-05 -6.1446859446845315e-03 0.0000000000000000e+00  5.3699090560034869e-05 -6.4388529546944295e-03 0.0000000000000000e+00  -1.5163635996277332e-04 -3.8754953601622972e-03 0.0000000000000000e+00  8.7556215432691692e-05 -5.0696990447515796e-03 0.0000000000000000e+00  -1.6454914969566258e-04 -2.7272494840328170e-03 0.0000000000000000e+00  -1.7730160202693825e-04 -3.5592174441948137e-03 0.0000000000000000e+00  4.1413957265752185e-05 -7.0900689818968743e-03 0.0000000000000000e+00  -1.6723024799129144e-04 -2.4136103379396355e-03 0.0000000000000000e+00  3.1228987754366668e-05 -6.9425101925919622e-03 0.0000000000000000e+00  -1.1515988552709844e-04 -8.9414252118070309e-04 0.0000000000000000e+00  -1.0681198880259324e-04 -6.6144360469231136e-04 0.0000000000000000e+00  -8.5643480418090949e-05 -7.6358608494108433e-03 0.0000000000000000e+00  -8.9941931741207041e-05 -7.5122529952808010e-03 0.0000000000000000e+00  3.1395628849593966e-05 -6.6206592142149792e-03 0.0000000000000000e+00  3.6475898640397649e-05 -6.3463516335264718e-03 0.0000000000000000e+00  5.5576542441566367e-05 -5.7005664501934691e-03 0.0000000000000000e+00  3.1357022843312336e-05 -6.8664964973060710e-03 0.0000000000000000e+00  4.2516810599498688e-05 -6.0420071210597450e-03 0.0000000000000000e+00  6.5814133067413198e-05 -5.3294759576494617e-03 0.0000000000000000e+00  -1.4958819405135710e-04 -4.0292093910656553e-03 0.0000000000000000e+00  1.2827254086063866e-04 -1.3280018761214437e-03 0.0000000000000000e+00  -9.4380475922661375e-05 -7.3015478707244884e-03 0.0000000000000000e+00  -9.5374788688223141e-05 -7.1678550203649848e-03 0.0000000000000000e+00  1.2994214896177496e-04 -1.6133862620880564e-03 0.0000000000000000e+00  -1.3756127507663700e-