<?xml version="1.0"?>
<VTKFile type="UnstructuredGrid"  version="0.1"  >
<UnstructuredGrid>
<Piece  NumberOfPoints="439" NumberOfCells="725">
<Points>
<DataArray  type="Float64"  NumberOfComponents="3"  format="ascii">0.5702750583569944 0.07334852763787915 0  0.5787616156921823 0.09100465813828111 0  0.2489897949 0.21 0  0.2489897949 0.19 0  0.5745187156962871 0.08217657633600485 0  0.2496355385699469 0.2060260530378829 0  0.249959460510575 0.2020130349814059 0  0.2499594605105767 0.1979869650186357 0  0.24963553856995 0.1939739469621422 0  0.2540993190187789 0.2098568584668935 0  0.2592258524388026 0.2096936834161084 0  0.2643495617645585 0.2094836879407861 0  0.269458669550681 0.2091316184741992 0  0.2745540414048732 0.208701786910766 0  0.2796488461833511 0.208162719374213 0  0.2847201973183911 0.2075662261482664 0  0.2897649738875628 0.2068709502464322 0  0.294801070527089 0.2060964906401218 0  0.299815054258707 0.2052442980390157 0  0.3048200241174396 0.2042870671996412 0  0.3098198206875428 0.20331207971285 0  0.3147735103512443 0.2022248599195789 0  0.3197354812794688 0.201072569668057 0  0.3246518443517437 0.1998687441854645 0  0.3295511203970226 0.1985840464855059 0  0.3344279543647926 0.1972545684699114 0  0.3392747798193052 0.1958502221112716 0  0.3440985071405168 0.1944178401231314 0  0.3488983471866786 0.1929239438317614 0  0.3536739590600665 0.191390321252759 0  0.3584247953221552 0.1898196418135659 0  0.3631551609199437 0.1881875546384773 0  0.3678792377715583 0.1865470021773042 0  0.372567350483651 0.1848577586400303 0  0.3772372433299313 0.1831507421677754 0  0.381885101434789 0.1814084262364367 0  0.3865137193935316 0.1796425150220617 0  0.3911228304324582 0.1778557689223062 0  0.3957167307064152 0.1760296661059784 0  0.4003081949533088 0.1742020199207041 0  0.404873861773059 0.1723441969228965 0  0.4094333076948228 0.1704621940445406 0  0.413989800316531 0.1685762651514597 0  0.4185314156323928 0.1666635428836946 0  0.4230744822116319 0.1647395024420774 0  0.4276071545379071 0.1627990342326017 0  0.4321402403228572 0.1608412827092665 0  0.4366658165804332 0.1588719099278343 0  0.4411866231049341 0.1568850332055858 0  0.4457058899584166 0.1548840399134109 0  0.4502217975634022 0.1528659400694024 0  0.454731368106473 0.1508315731465319 0  0.4592397615719953 0.1487807073263896 0  0.4637440808387518 0.1467105723970508 0  0.4682420506785929 0.1446229395981722 0  0.4727373179979077 0.1425185822008237 0  0.4772274366084031 0.1403955895100167 0  0.4817114925305284 0.1382586128457913 0  0.4861920539551782 0.1361085721561561 0  0.49066634478405 0.1339451996624233 0  0.4951345629436018 0.1317738663616932 0  0.4995983907919015 0.1295964583925782 0  0.5040549424869069 0.1274132039409317 0  0.5085055854080245 0.1252287892401553 0  0.5129505397759108 0.1230442953923419 0  0.5173867399106088 0.1208608289015061 0  0.5218145598036763 0.1186817197647699 0  0.5262349962036783 0.1165059009040387 0  0.5306470987027559 0.1143382599359379 0  0.5350485665957304 0.1121811641710175 0  0.5394444927053943 0.1100264913443514 0  0.5438296370360699 0.1078835700943948 0  0.5482045575179116 0.1057486715901476 0  0.5525770082395574 0.1036234867944668 0  0.5569427739317229 0.1015100870744402 0  0.5613071221888929 0.09939943592268297 0  0.5656710087756855 0.09729714183280115 0  0.5700331588980532 0.09519959163984246 0  0.5743969881076422 0.09310135091698207 0  0.5659099784603833 0.07544700484879338 0  0.5615431564665906 0.07754412227259566 0  0.5571761157591508 0.07964005261605196 0  0.5528044688931639 0.08173436212424652 0  0.5484275317776015 0.08383057996087319 0  0.544044830909298 0.08592619537699181 0  0.5396523325842625 0.0880270736516217 0  0.5352498970303708 0.09013116486671684 0  0.5308401036770082 0.0922422646666298 0  0.5264202148340418 0.09436277816370632 0  0.5219929549919895 0.09648887636862973 0  0.5175594891705964 0.09862646561928776 0  0.5131197696881539 0.1007745902379061 0  0.5086764861146045 0.1029247747599611 0  0.504230561334864 0.1050841797313585 0  0.4997838130634574 0.1072477753082249 0  0.4953369577239298 0.1094129033937119 0  0.4908909936290456 0.1115781614160321 0  0.4864480265216733 0.1137375556800838 0  0.4820075836919206 0.1158958369065517 0  0.4775678778096097 0.1180426943804018 0  0.4731307872635968 0.1201735403106866 0  0.4686970234510566 0.122299502186078 0  0.4642598126355038 0.1244056042358556 0  0.4598218153620693 0.1264897612979083 0  0.4553853979851485 0.1285644231284061 0  0.4509440062966737 0.1306193927954175 0  0.4464981351026683 0.1326508336972392 0  0.4420518449018503 0.1346759052276878 0  0.43759478992534 0.1366800145642443 0  0.4331373098001499 0.1386625633145228 0  0.4286796205497735 0.1406382520113439 0  0.4242159106362529 0.1425932497695829 0  0.4197482328413267 0.1445374361929369 0  0.4152798655187543 0.1464642714874325 0  0.4108074139650346 0.1483691779564968 0  0.4063390542362618 0.1502604843743395 0  0.4018642379175033 0.1521281020794053 0  0.397389274498459 0.1539732919992123 0  0.3929106844364347 0.1557924611729762 0  0.3884226084592584 0.1575838263626856 0  0.383922735037181 0.1593554965039639 0  0.3794097450274557 0.1610964456605858 0  0.3749011059338548 0.1628108156187381 0  0.370365950477834 0.1644943026955494 0  0.3658299650436024 0.1661392546351741 0  0.3612727927165552 0.1677629224265866 0  0.3567056203769067 0.169342620493709 0  0.3521237001961898 0.1708984198424426 0  0.347527646833193 0.1724096949802384 0  0.3429442010061624 0.1738831615637661 0  0.3383300099916217 0.1753095295392383 0  0.3337239252629889 0.1766740594596823 0  0.3290834572540845 0.1779983127774959 0  0.3244336139545754 0.1792420902331789 0  0.3197873962532084 0.1804672204575963 0  0.3151119267825466 0.1816077098457321 0  0.3104567781500487 0.1826856802399095 0  0.3057626065685701 0.1837087285757915 0  0.3010640810944377 0.1846418366731685 0  0.2963515246400885 0.1855265451932926 0  0.2916262266557197 0.1863236565818518 0  0.2869228732092793 0.1870592626772426 0  0.2821789248757617 0.1877148318277108 0  0.2774619768740514 0.1882879670247037 0  0.2727138264422714 0.1887645658184633 0  0.2679893192925694 0.1891576685232686 0  0.2632434105685518 0.1894888858287342 0  0.2584931724030931 0.1897200241732276 0  0.2537431382483479 0.1898381067682027 0  0.5723969907442162 0.07776244311675388 0  0.5766407444223471 0.086590972318574 0  0.2589829858166268 0.2004030505777378 0  0.5241022935981952 0.1064860207670865 0  0.5464339443691159 0.09563944188016302 0  0.2774415440517869 0.1992745422283311 0  0.4977543022861242 0.1192592924897021 0  0.511091931561454 0.1127300268322976 0  0.2941407166370603 0.1954565875337669 0  0.5591158478592324 0.08907735274796615 0  0.3098592157545731 0.1931355806827399 0  0.3358043000101528 0.1874128665292708 0  0.4843971015856162 0.125765815375964 0  0.3529664923772909 0.1811845803067106 0  0.4710258197332181 0.1321789176869199 0  0.3674994976131279 0.1761872203291859 0  0.3852674199712002 0.1695224298785805 0  0.4571459994491227 0.1382739169402509 0  0.4439037830573013 0.1447912104625678 0  0.3985873376604875 0.1643404436814911 0  0.4124265344767953 0.1584969731025632 0  0.429858059052693 0.1509917820262785 0  0.3194410462286686 0.1909644590710666 0  0.5377103312369204 0.09987089884272239 0  0.4201267782228849 0.1550553398778483 0  0.3449368893614282 0.1839411954197316 0  0.3774461396398152 0.1726729567375699 0  0.2859064058233752 0.1974409303903961 0  0.5659352774888948 0.08439269365114752 0  0.268062063935825 0.2010037933591972 0  0.4515519956995785 0.1438033734872879 0  0.4783891467586284 0.1312684493942726 0  0.4917658159398337 0.124797336462546 0  0.3912680729882004 0.1647669609314424 0  0.4649883265017643 0.1376150730351537 0  0.5051201064781888 0.118265614688147 0  0.4380759603862446 0.1498397585929034 0  0.5184383727844052 0.1117398236855668 0  0.4048108255244057 0.1592601460572909 0  0.3592283781399963 0.1766973039117519 0  0.3025474589701957 0.1923538678668721 0  0.5517228107591232 0.09067629370935122 0  0.5293975693150508 0.1007508077285438 0  0.3278447842034182 0.1917471198539657 0  0.5304734857845218 0.1076194356228762 0  0.3280831713464323 0.1847217570775699 0  0.5177415248420514 0.1052986108954697 0  0.5044218383563567 0.111795328631365 0  0.4910807645486719 0.118312566588936 0  0.5562706712301779 0.09515939377545983 0  0.3015266461788124 0.1987819920366676 0  0.4643865880178282 0.1311338335778356 0  0.4777369552306729 0.1247814673916901 0  0.3914809735174827 0.171216086786207 0  0.3591309355167029 0.1831774738058592 0  0.447049167566503 0.1391325005672628 0  0.4375984343036877 0.1433763090259079 0  0.4051206251303866 0.1657065040193975 0  0.2556989765848697 0.1960207291125315 0  0.2550691308915421 0.2033956067418127 0  0.4278040895033159 0.1559903767233659 0  0.3698459045011352 0.1713203874712629 0  0.3379222585009087 0.1817969015316809 0  0.280715122563408 0.1940902723144558 0  0.2904711569879654 0.1927711409227365 0  0.4186222765585212 0.1601255942762645 0  0.3469307450902118 0.1790057377979128 0  0.3791495768550063 0.1676652023624589 0  0.3150602820533676 0.1880372294743019 0  0.5426693766480211 0.1016244277172242 0  0.5396217510627526 0.09466662552885056 0  0.3164014629497852 0.1956426350063465 0  0.2706886288177582 0.1950397885481507 0  0.5653115122005851 0.09173281695394593 0  0.4244021150171827 0.1484577348967465 0  0.4151815296505815 0.1528740693549499 0  0.3400403782455426 0.1902708002486473 0  0.2813084162147951 0.2028073072073099 0  0.2919115217841431 0.2013470226122124 0  0.372793465896089 0.1790373668528822 0  0.3494412791037288 0.187745836332459 0  0.3821277141155728 0.176222811796873 0  0.264564393463177 0.1957240848827068 0  0.5712229979793444 0.08815178636322916 0  0.5123075988570501 0.1074134945453378 0  0.4989748695748616 0.1139225090519924 0  0.3073725163600027 0.1981079171722291 0  0.4856316321433186 0.1204275400814985 0  0.5513323110427578 0.09805429191517111 0  0.4722886108700335 0.12685627534947 0  0.4589719210757865 0.133127542919898 0  0.
[...]
<PointData  Vectors="d"> 
<DataArray  type="Float64"  Name="d"  NumberOfComponents="3" format="ascii">-2.9724941643005428e-02 -1.1665147236212089e-01 0.0000000000000000e+00  -2.1238384307817618e-02 -1.1899534186171891e-01 0.0000000000000000e+00  0.0000000000000000e+00 0.0000000000000000e+00 0.0000000000000000e+00  0.0000000000000000e+00 0.0000000000000000e+00 0.0000000000000000e+00  -2.5481284303713093e-02 -1.1782342366399520e-01 0.0000000000000000e+00  0.0000000000000000e+00 0.0000000000000000e+00 0.0000000000000000e+00  0.0000000000000000e+00 0.0000000000000000e+00 0.0000000000000000e+00  0.0000000000000000e+00 0.0000000000000000e+00 0.0000000000000000e+00  0.0000000000000000e+00 0.0000000000000000e+00 0.0000000000000000e+00  1.6571841314967579e-04 -1.4314153310652131e-04 0.0000000000000000e+00  3.4844612754838860e-04 -3.0631658389163166e-04 0.0000000000000000e+00  5.2834974766636253e-04 -5.1631205921385311e-04 0.0000000000000000e+00  6.9365182815106800e-04 -8.6838152580083678e-04 0.0000000000000000e+00  8.4521797671624575e-04 -1.2982130892340833e-03 0.0000000000000000e+00  9.9621704957573109e-04 -1.8372806257870153e-03 0.0000000000000000e+00  1.1237624789974514e-03 -2.4337738517335224e-03 0.0000000000000000e+00  1.2247333425462552e-03 -3.1290497535678614e-03 0.0000000000000000e+00  1.3170242764367916e-03 -3.9035093598781515e-03 0.0000000000000000e+00  1.3872023024361435e-03 -4.7557019609843600e-03 0.0000000000000000e+00  1.4483664555398586e-03 -5.7129328003588369e-03 0.0000000000000000e+00  1.5043573200247383e-03 -6.6879202871499505e-03 0.0000000000000000e+00  1.5142412781076915e-03 -7.7751400804211557e-03 0.0000000000000000e+00  1.5324065007138803e-03 -8.9274303319429853e-03 0.0000000000000000e+00  1.5049638673704339e-03 -1.0131255814535426e-02 0.0000000000000000e+00  1.4604342070309183e-03 -1.1415953514494162e-02 0.0000000000000000e+00  1.3934624691718650e-03 -1.2745431530088615e-02 0.0000000000000000e+00  1.2964822180767225e-03 -1.4149777888728359e-02 0.0000000000000000e+00  1.1764038336591442e-03 -1.5582159876868572e-02 0.0000000000000000e+00  1.0324381742025258e-03 -1.7076056168238578e-02 0.0000000000000000e+00  8.6424434197207134e-04 -1.8609678747240999e-02 0.0000000000000000e+00  6.7127489844257253e-04 -2.0180358186434103e-02 0.0000000000000000e+00  4.5783479061265819e-04 -2.1812445361522638e-02 0.0000000000000000e+00  2.3810593660878677e-04 -2.3452997822695828e-02 0.0000000000000000e+00  -1.7587056927747949e-05 -2.5142241359969633e-02 0.0000000000000000e+00  -2.9149991625635727e-04 -2.6849257832224579e-02 0.0000000000000000e+00  -5.8744751702316381e-04 -2.8591573763563295e-02 0.0000000000000000e+00  -9.0263526390217403e-04 -3.0357484977938273e-02 0.0000000000000000e+00  -1.2373299306049897e-03 -3.2144231077693833e-02 0.0000000000000000e+00  -1.5872353622554043e-03 -3.3970333894021633e-02 0.0000000000000000e+00  -1.9395768209896657e-03 -3.5797980079296021e-02 0.0000000000000000e+00  -2.3177157068518012e-03 -3.7655803077103540e-02 0.0000000000000000e+00  -2.7020754907082201e-03 -3.9537805955459387e-02 0.0000000000000000e+00  -3.0893885746208164e-03 -4.1423734848540325e-02 0.0000000000000000e+00  -3.4915789643707048e-03 -4.3336457116305384e-02 0.0000000000000000e+00  -3.8923180907600202e-03 -4.5260497557922545e-02 0.0000000000000000e+00  -4.3034514701179921e-03 -4.7200965767398233e-02 0.0000000000000000e+00  -4.7141713908201086e-03 -4.9158717290733477e-02 0.0000000000000000e+00  -5.1324008388996516e-03 -5.1128090072165726e-02 0.0000000000000000e+00  -5.5554000200627963e-03 -5.3114966794414152e-02 0.0000000000000000e+00  -5.9799388722278921e-03 -5.5115960086589123e-02 0.0000000000000000e+00  -6.4078369728842758e-03 -5.7134059930597739e-02 0.0000000000000000e+00  -6.8420721354430520e-03 -5.9168426853468098e-02 0.0000000000000000e+00  -7.2774843755713222e-03 -6.1219292673610426e-02 0.0000000000000000e+00  -7.7169708144480004e-03 -6.3289427602949200e-02 0.0000000000000000e+00  -8.1628066802737955e-03 -6.5377060401827738e-02 0.0000000000000000e+00  -8.6113450666056301e-03 -6.7481417799176269e-02 0.0000000000000000e+00  -9.0650321617730071e-03 -6.9604410489983365e-02 0.0000000000000000e+00  -9.5247819452781816e-03 -7.1741387154208761e-02 0.0000000000000000e+00  -9.9880262262827743e-03 -7.3891427843843907e-02 0.0000000000000000e+00  -1.0457541103039482e-02 -7.6054800337576625e-02 0.0000000000000000e+00  -1.0933128649147368e-02 -7.8226133638306772e-02 0.0000000000000000e+00  -1.1413106506486111e-02 -8.0403541607421747e-02 0.0000000000000000e+00  -1.1900360517097024e-02 -8.2586796059068338e-02 0.0000000000000000e+00  -1.2393523301616818e-02 -8.4771210759844728e-02 0.0000000000000000e+00  -1.2892374639389886e-02 -8.6955704607658016e-02 0.0000000000000000e+00  -1.3399980210330287e-02 -8.9139171098493911e-02 0.0000000000000000e+00  -1.3915966022922313e-02 -9.1318280235230143e-02 0.0000000000000000e+00  -1.4439335328558282e-02 -9.3494099095961264e-02 0.0000000000000000e+00  -1.4971038535097009e-02 -9.5661740064062070e-02 0.0000000000000000e+00  -1.5513376347760463e-02 -9.7818835828982556e-02 0.0000000000000000e+00  -1.6061255943751466e-02 -9.9973508655648524e-02 0.0000000000000000e+00  -1.6619917318718643e-02 -1.0211642990560521e-01 0.0000000000000000e+00  -1.7188802542536536e-02 -1.0425132840985241e-01 0.0000000000000000e+00  -1.7760157526554046e-02 -1.0637651320553317e-01 0.0000000000000000e+00  -1.8338197540023117e-02 -1.0848991292555984e-01 0.0000000000000000e+00  -1.8917654988490809e-02 -1.1060056407731707e-01 0.0000000000000000e+00  -1.9497574107348568e-02 -1.1270285816719883e-01 0.0000000000000000e+00  -2.0079229690627656e-02 -1.1480040836015758e-01 0.0000000000000000e+00  -2.0659206186698382e-02 -1.1689864908301795e-01 0.0000000000000000e+00  -2.9146215833999751e-02 -1.1455299515120658e-01 0.0000000000000000e+00  -2.8569232122167516e-02 -1.1245587772740434e-01 0.0000000000000000e+00  -2.7992467123968471e-02 -1.1035994738394803e-01 0.0000000000000000e+00  -2.7420308284308678e-02 -1.0826563787575347e-01 0.0000000000000000e+00  -2.6853439694249973e-02 -1.0616942003912683e-01 0.0000000000000000e+00  -2.6292334856933216e-02 -1.0407380462300823e-01 0.0000000000000000e+00  -2.5741027476355680e-02 -1.0197292634837833e-01 0.0000000000000000e+00  -2.5199657324617923e-02 -9.9868835133283151e-02 0.0000000000000000e+00  -2.4665644972349778e-02 -9.7757735333370233e-02 0.0000000000000000e+00  -2.4141728109661840e-02 -9.5637221836293668e-02 0.0000000000000000e+00  -2.3625182246114887e-02 -9.3511123631370235e-02 0.0000000000000000e+00  -2.3114842361908625e-02 -9.1373534380712274e-02 0.0000000000000000e+00  -2.2610756138742194e-02 -8.9225409762093963e-02 0.0000000000000000e+00  -2.2110234006658382e-02 -8.7075225240038842e-02 0.0000000000000000e+00  -2.1612353080798848e-02 -8.4915820268641487e-02 0.0000000000000000e+00  -2.1115295646567108e-02 -8.2752224691775081e-02 0.0000000000000000e+00  -2.0618345280492015e-02 -8.0587096606288128e-02 0.0000000000000000e+00  -2.0120503669776968e-02 -7.8421838583967896e-02 0.0000000000000000e+00  -1.9619665071544352e-02 -7.6262444319916176e-02 0.0000000000000000e+00  -1.9116302195659778e-02 -7.4104163093448278e-02 0.0000000000000000e+00  -1.8612202372362229e-02 -7.1957305619598191e-02 0.0000000000000000e+00  -1.8105487212756365e-02 -6.9826459689313378e-02 0.0000000000000000e+00  -1.7595445319677716e-02 -6.7700497813921914e-02 0.0000000000000000e+00  -1.7088850429600740e-02 -6.5594395764144428e-02 0.0000000000000000e+00  -1.6583041997427307e-02 -6.3510238702091659e-02 0.0000000000000000e+00  -1.6075653668719773e-02 -6.1435576871593893e-02 0.0000000000000000e+00  -1.5573239651581694e-02 -5.9380607204582464e-02 0.0000000000000000e+00  -1.5075305139966624e-02 -5.7349166302760712e-02 0.0000000000000000e+00  -1.4577789635159964e-02 -5.5324094772312218e-02 0.0000000000000000e+00  -1.4091038906040847e-02 -5.3319985435755647e-02 0.0000000000000000e+00  -1.3604713325621770e-02 -5.1337436685477196e-02 0.0000000000000000e+00  -1.3118596870373022e-02 -4.9361747988656161e-02 0.0000000000000000e+00  -1.2638501078276765e-02 -4.7406750230417190e-02 0.0000000000000000e+00  -1.2162373167586454e-02 -4.5462563807063087e-02 0.0000000000000000e+00  -1.1686934784532314e-02 -4.3535728512567456e-02 0.0000000000000000e+00  -1.1215580632613560e-02 -4.1630822043503206e-02 0.0000000000000000e+00  -1.0740134655743893e-02 -3.9739515625660436e-02 0.0000000000000000e+00  -1.0271145268856094e-02 -3.7871897920594755e-02 0.0000000000000000e+00  -9.8023029822406280e-03 -3.6026708000787652e-02 0.0000000000000000e+00  -9.3370873386130464e-03 -3.4207538827023848e-02 0.0000000000000000e+00  -8.8813576101317987e-03 -3.2416173637314485e-02 0.0000000000000000e+00  -8.4374253265737196e-03 -3.0644503496036032e-02 0.0000000000000000e+00  -8.0066096306525992e-03 -2.8903554339414175e-02 0.0000000000000000e+00  -7.5714430186274474e-03 -2.7189184381261850e-02 0.0000000000000000e+00  -7.1627927689918523e-03 -2.5505697304450559e-02 0.0000000000000000e+00  -6.7549724975748690e-03 -2.3860745364825939e-02 0.0000000000000000e+00  -6.3683391189532272e-03 -2.2237077573413429e-02 0.0000000000000000e+00  -5.9917057529548122e-03 -2.0657379506291009e-02 0.0000000000000000e+00  -5.6298202280210090e-03 -1.9101580157557318e-02 0.0000000000000000e+00  -5.2820678853959602e-03 -1.7590305019761721e-02 0.0000000000000000e+00  -4.9217080067685548e-03 -1.6116838436233911e-02 0.0000000000000000e+00  -4.5920933156702523e-03 -1.4690470460761693e-02 0.0000000000000000e+00  -4.2543723386646000e-03 -1.3325940540317716e-02 0.0000000000000000e+00  -3.9510346419305660e-03 -1.2001687222504106e-02 0.0000000000000000e+00  -3.6570722357995734e-03 -1.0757909766821061e-02 0.0000000000000000e+00  -3.3594842315087777e-03 -9.5327795424036826e-03 0.0000000000000000e+00  -3.0911479965123356e-03 -8.3922901542678244e-03 0.0000000000000000e+00  -2.8024909233524695e-03 -7.3143197600906715e-03 0.0000000000000000e+00  -2.5528567991879828e-03 -6.2912714242084871e-03 0.0000000000000000e+00  -2.3075765676818668e-03 -5.3581633268314490e-03 0.0000000000000000e+00  -2.0763273163927494e-03 -4.4734548067074153e-03 0.0000000000000000e+00  -1.8578195951233624e-03 -3.6763434181481956e-03 0.0000000000000000e+00  -1.6173673359080108e-03 -2.9407373227573908e-03 0.0000000000000000e+00  -1.4175099637677986e-03 -2.2851681722891844e-03 0.0000000000000000e+00  -1.1906522598202445e-03 -1.7120329752963064e-03 0.0000000000000000e+00  -9.9499698595305742e-04 -1.2354341815367185e-03 0.0000000000000000e+00  -7.7569843001670238e-04 -8.4233147673150115e-04 0.0000000000000000e+00  -5.7780144839589395e-04 -5.1111417126576710e-04 0.0000000000000000e+00  -3.8423390821602386e-04 -2.7997582677236104e-04 0.0000000000000000e+00  -1.9046235731008757e-04 -1.6189323179723674e-04 0.0000000000000000e+00  -2.7603009255783781e-02 -1.1723755688322442e-01 0.0000000000000000e+00  -2.3359255577652942e-02 -1.1840902768139888e-01 0.0000000000000000e+00  9.5592849774999224e-06 -1.4933876510247673e-04 0.0000000000000000e+00  -1.9043940787112291e-02 -9.3513979232882474e-02 0.0000000000000000e+00  -2.1805845107700117e-02 -1.0433101670073568e-01 0.0000000000000000e+00  -9.8486600154702978e-06 -1.5196497138615906e-03 0.0000000000000000e+00  -1.6095281090772778e-02 -8.0643050159389773e-02 0.0000000000000000e+00  -1.7589068932283968e-02 -8.7172315816799170e-02 0.0000000000000000e+00  -3.7017856870443443e-04 -3.8346033067716955e-03 0.0000000000000000e+00  -2.3662235279260140e-02 -1.1046562735236877e-01 0.0000000000000000e+00  -5.5362390235241159e-04 -6.8348778981578975e-03 0.0000000000000000e+00  -1.1958755317023331e-03 -1.3416594714125978e-02 0.0000000000000000e+00  -1.4621064674429815e-02 -7.4136527273126127e-02 0.0000000000000000e+00  -2.3151251936135591e-03 -1.8815419693350308e-02 0.0000000000000000e+00  -1.3160929409974487e-02 -6.7723424962165060e-02 0.0000000000000000e+00  -3.2378737774272502e-03 -2.3827017366183006e-02 0.0000000000000000e+00  -4.6208375390493260e-03 -3.0477570121502293e-02 0.0000000000000000e+00  -1.1839755600150700e-02 -6.1267755485418532e-02 0.0000000000000000e+00  -1.0253948626895302e-02 -5.5208789537341832e-02 0.0000000000000000e+00  -5.7661537413455895e-03 -3.5757213669433262e-02 0.0000000000000000e+00  -7.1245572671615257e-03 -4.1503026897542566e-02 0.0000000000000000e+00  -8.8439188117581270e-03 -4.8993980278398699e-02 0.0000000000000000e+00  -8.0622879700164055e-04 -9.0444251435732419e-03 0.0000000000000000e+00  -2.0695022871164793e-02 -1.0012021694263533e-01 0.0000000000000000e+00  -7.9399364658286082e-03 -4.4793564942975858e-02 0.0000000000000000e+00  -1.8291052651192104e-03 -1.6209899759705854e-02 0.0000000000000000e+00  -3.9264949260755808e-03 -2.7478138441882093e-02 0.0000000000000000e+00  -1.6193186883457992e-04 -2.6006141802221048e-03 0.0000000000000000e+00  -2.5187103689224718e-02 -1.1385222228372686e-01 0.0000000000000000e+00  7.2747789962304379e-05 -6.7133228753179976e-04 0.0000000000000000e+00  -1.0021444543049318e-02 -5.8446989841512455e-02 0.0000000000000000e+00  -1.2847127717716870e-02 -7.0981913934536539e-02 0.0000000000000000e+00  -1.4301875653364693e-02 -7.7453026866265817e-02 0.0000000000000000e+00  -6.0358930804770899e-03 -3.2982675739754094e-02 0.0000000000000000e+00  -1.1416530857725300e-02 -6.4635290293651365e-02 0.0000000000000000e+00  -1.5779002231856774e-02 -8.3984748640671514e-02 0.0000000000000000e+00  -8.6660627395209223e-03 -5.2410604735896482e-02 0.0000000000000000e+00  -1.7292153042479542e-02 -9.0510539643253035e-02 0.0000000000000000e+00  -7.3245576611257910e-03 -3.8489490613906767e-02 0.0000000000000000e+00  -3.4689479893389649e-03 -2.1052332759439980e-02 0.0000000000000000e+00  -8.2419869170030147e-04 -5.3957688043147706e-03 0.0000000000000000e+00  -2.3558160712699668e-02 -1.0707334296179907e-01 0.0000000000000000e+00  -2.1062286604005307e-02 -9.6377670745222827e-02 0.0000000000000000e+00  -3.4798901126595198e-04 -1.1124401672275002e-02 0.0000000000000000e+00  -1.7944416265224226e-02 -9.6220885946600110e-02 0.0000000000000000e+00  -2.1515557375664891e-03 -1.1437921352979150e-02 0.0000000000000000e+00  -2.0179560381759928e-02 -9.0826570768941309e-02 0.0000000000000000e+00  -1.8667829750608531e-02 -8.4329853033040802e-02 0.0000000000000000e+00  -1.7177486441450247e-02 -7.7812615075473809e-02 0.0000000000000000e+00  -2.1200859638531275e-02 -1.0871542456012888e-01 0.0000000000000000e+00  3.4554791385755883e-04 -5.0928262989261581e-03 0.0000000000000000e+00  -1.4208828738582898e-02 -6.4991348086568437e-02 0.0000000000000000e+00  -1.5689878642594100e-02 -7.1343714272716144e-02 0.0000000000000000e+00  -3.6324331542803901e-03 -3.2658731549389662e-02 0.0000000000000000e+00  -1.3758312157087769e-03 -2.0697344529735845e-02 0.0000000000000000e+00  -1.2333713279211452e-02 -5.6992681097136427e-02 0.0000000000000000e+00  -1.1334148218992745e-02 -5.2748872638492733e-02 0.0000000000000000e+00  -4.8241986582354766e-03 -3.8168314316201532e-02 0.0000000000000000e+00  -8.7323395327335216e-05 -6.5107913198044607e-05 0.0000000000000000e+00  5.4394860602356632e-05 -4.7036257298769511e-05 0.0000000000000000e+00  -6.9990581431530127e-03 -4.7783381040789559e-02 0.0000000000000000e+00  -4.7902971072747687e-03 -2.4905854764592429e-02 0.0000000000000000e+00  -2.7035780855218607e-03 -1.4249890662308093e-02 0.0000000000000000e+00  -5.8504555557532931e-04 -1.9565198795942935e-03 0.0000000000000000e+00  -7.9748175602387843e-04 -3.3104919421918012e-03 0.0000000000000000e+00  -6.0482570234680387e-03 -4.3827613529689856e-02 0.0000000000000000e+00  -3.2314306427012260e-03 -1.7041054396275006e-02 0.0000000000000000e+00  -5.6192388172631421e-03 -2.8381589831776976e-02 0.0000000000000000e+00  -1.5720864849883016e-03 -8.1222290890680063e-03 0.0000000000000000e+00  -1.9485624457320001e-02 -1.0215722154267491e-01 0.0000000000000000e+00  -2.2819636639224431e-02 -1.0140956683228716e-01 0.0000000000000000e+00  1.6195936647243311e-04 -8.2253207361225999e-03 0.0000000000000000e+00  -4.0008460300399693e-04 -9.2985578443306760e-04 0.0000000000000000e+00  -2.1989925439775373e-02 -1.1298997114913638e-01 0.0000000000000000e+00  -1.0265841627088252e-02 -4.7007411058504853e-02 0.0000000000000000e+00  -9.1481207572170938e-03 -4.3001628738956320e-02 0.0000000000000000e+00  -2.1557283780979615e-04 -1.4523249780444985e-02 0.0000000000000000e+00  4.3992353870184566e-04 -1.9669345739556972e-03 0.0000000000000000e+00  5.0381847027084685e-04 -3.4339290948831400e-03 0.0000000000000000e+00  -1.9779267144041752e-03 -2.5497487191973187e-02 0.0000000000000000e+00  -4.8036978615778852e-04 -1.7429504986171487e-02 0.0000000000000000e+00  -2.4005747136568974e-03 -2.8952529521762908e-02 0.0000000000000000e+00  -2.5009308232834554e-04 -4.8488941593060123e-04 0.0000000000000000e+00  -2.3101766386945052e-02 -1.1588975599568904e-01 0.0000000000000000e+00  -1.9789662188564240e-02 -8.8231015359749393e-02 0.0000000000000000e+00  -1.8290974353911096e-02 -8.1722000853092988e-02 0.0000000000000000e+00  3.8019079973694304e-04 -6.2388862150260507e-03 0.0000000000000000e+00  -1.6802794668607939e-02 -7.5216969823587859e-02 0.0000000000000000e+00  -2.0327992530677127e-02 -1.0629251147210504e-01 0.0000000000000000e+00  -1.5314398825040581e-02 -6.8788234555613184e-02 0.0000000000000000e+00  -1.3843276453839801e-02 -6.2512703971091321e-02 0.0000000000000000e+00  -1.5396961238351022e-03 -2.2634762950079781e-02 0.0000000000000000e+00  -1.3090964436698060e-02 -5.9327693629880239e-02 0.0000000000000000e+00  -3.9174328629310922e-03 -3.4835505453698241e-02 0.0000000000000000e+00  -1.0988607642640990e-02 -5.0370688994331551e-02 0.0000000000000000e+00  -5.1322536580659835e-03 -4.0422386402503327e-02 0.0000000000000000e+00  -2.5732382875762135e-02 -1.1159530337851707e-01 0.0000000000000000e+00  -1.8313902134613608e-02 -9.8778517771002675e-02 0.0000000000000000e+00  -2.0421914100043387e-03 -9.9646852932564079e-03 0.0000000000000000e+00  3.6052147779360973e-04 -1.0242832563754952e-03 0.0000000000000000e+00  1.9286071073068445e-04 -3.8600272565969833e-04 0.0000000000000000e+00  -8.6006182264463278e-03 -5.6704925335037078e-02 0.0000000000000000e+00  -8.5964634067132312e-03 -4.0066133565042704e-02 0.0000000000000000e+00  -9.9605966949286827e-03 -6.2848190030950712e-02 0.0000000000000000e+00  -1.4293603951034179e-02 -8.2103393808359973e-02 0.0000000000000000e+00  -1.1399765091237529e-02 -6.9136225098863163e-02 0.0000000000000000e+00  -1.2832006954577610e-02 -7.5578461545255882e-02 0.0000000000000000e+00  -7.0558502512991141e-03 -3.4679982458377716e-02 0.0000000000000000e+00  -7.3546198193293688e-03 -5.0738501535418846e-02 0.0000000000000000e+00  -4.4946407643698810e-03 -2.2454014226038207e-02 0.0000000000000000e+00  -6.5055115203152929e-03 -3.1081913118595535e-02 0.0000000000000000e+00  -1.6746969252261931e-02 -9.2856349607892852e-02 0.0000000000000000e+00  -3.9299551568443601e-03 -1.9406134526496439e-02 0.0000000000000000e+00  -1.6077865207984435e-02 -8.8490564510711342e-02 0.0000000000000000e+00  -1.3956896719628485e-03 -6.2670127157992434e-03 0.0000000000000000e+00  -1.1315876076930882e-03 -4.4996548529067631e-03 0.0000000000000000e+00  -2.5001447746777723e-02 -1.0868039052405988e-01 0.0000000000000000e+00  -2.4037004716985232e-02 -1.0476384502077969e-01 0.0000000000000000e+00  -1.4242259295604126e-02 -7.9860981734472897e-02 0.0000000000000000e+00  -1.2785501219127856e-02 -7.3357416361222172e-02 0.0000000000000000e+00  -9.8341310996368173e-03 -6.0660431168073514e-02 0.0000000000000000e+00  -1.5610268271781214e-02 -8.6359463388706273e-02 0.0000000000000000e+00  -1.1355285347951867e-02 -6.6958323557023094e-02 0.0000000000000000e+00  -8.4471400626520577e-03 -5.4582978697720566e-02 0.0000000000000000e+00  -7.4600233219424021e-03 -3.6472906686265273e-02 0.0000000000000000e+00  2.2354829584252659e-04 -9.9935002346244490e-03 0.0000000000000000e+00  -2.2356588976765783e-02 -9.8204825716958072e-02 0.0000000000000000e+00  -2.1291934449931878e-02 -9.4167436090921555e-02 0.0000000000000000e+00  -