<?xml version="1.0"?>
<VTKFile type="UnstructuredGrid"  version="0.1"  >
<UnstructuredGrid>
<Piece  NumberOfPoints="439" NumberOfCells="725">
<Points>
<DataArray  type="Float64"  NumberOfComponents="3"  format="ascii">0.5982834698727226 0.168800958387909 0  0.6001883318849749 0.1887685032720302 0  0.2489897949 0.21 0  0.2489897949 0.19 0  0.5992361698508107 0.1787844572688181 0  0.2496355385699469 0.2060260530378829 0  0.249959460510575 0.2020130349814059 0  0.2499594605105767 0.1979869650186357 0  0.24963553856995 0.1939739469621422 0  0.2539445679522939 0.2099945840008548 0  0.2589039074305257 0.2099921951389248 0  0.2638656906750258 0.2099891930178142 0  0.2688307291954621 0.2099755804283979 0  0.2737984521950853 0.2099541366235181 0  0.2787705199490963 0.2099215376703144 0  0.2837424803065173 0.2098808476649885 0  0.2887150093462453 0.209826164436114 0  0.2936896445937878 0.2097590552743741 0  0.2986637313671284 0.2096780319707654 0  0.303640276143598 0.2095769023340736 0  0.3086171948396586 0.2094719793173005 0  0.3135897202490231 0.2093432672067035 0  0.3185661933438786 0.2092012743683242 0  0.3235352224313728 0.2090463524049365 0  0.3285033285642326 0.2088734042414168 0  0.3334683153315338 0.2086899539088631 0  0.3384296705275885 0.2084888425934826 0  0.3433867975717235 0.2082813482549929 0  0.34834165001812 0.2080606699290088 0  0.3532930916846676 0.2078317421845363 0  0.3582412973153336 0.2075957098999895 0  0.3631879748587077 0.2073503038356033 0  0.368133439420448 0.207103458190222 0  0.3730747786124055 0.2068475275710481 0  0.3780145656568922 0.2065887203885728 0  0.3829530587945561 0.2063234358495216 0  0.3878911743872321 0.2060536896406139 0  0.3928295131232698 0.2057798042248995 0  0.3977723488936941 0.2055003616281676 0  0.4027151685271608 0.2052209460277289 0  0.4076618292323192 0.2049353383805022 0  0.4126125718111636 0.2046460932411803 0  0.4175642843534313 0.2043548172829754 0  0.4225197358740854 0.2040565368805987 0  0.4274778952129098 0.2037525084467888 0  0.4324365660149395 0.2034403288320836 0  0.4373991132514993 0.2031162524391016 0  0.4423593087843887 0.2027841125467594 0  0.4473191387820543 0.202437002753071 0  0.4522801845211279 0.2020781511834367 0  0.4572411619907852 0.2017047858891332 0  0.4621973940079779 0.2013192989936131 0  0.4671539689901331 0.2009226988701588 0  0.4721089318417044 0.2005134736987763 0  0.4770577528215294 0.2000955995735827 0  0.4820057529297004 0.1996706924669124 0  0.4869514734185085 0.1992373952246755 0  0.4918901927501122 0.1987989856152312 0  0.4968267038606904 0.1983573050503342 0  0.5017596700226732 0.197910554650921 0  0.5066855396367511 0.1974599886032852 0  0.5116073695901934 0.1970080783928709 0  0.5165243432488907 0.1965534557258702 0  0.5214362909687357 0.1960969849200266 0  0.5263446606220175 0.1956406738863311 0  0.5312501357498846 0.1951838165192303 0  0.5361543212181237 0.1947273736374784 0  0.5410608741179636 0.194270460586891 0  0.5459697663388399 0.1938162796408113 0  0.5508795077479536 0.19336411777936 0  0.5557929618013225 0.192907966470561 0  0.5607155335510872 0.1924560387734812 0  0.5656408352560361 0.1920006425124871 0  0.5705716171739336 0.1915435516157462 0  0.5755057034694604 0.191086736562851 0  0.5804419612127061 0.1906260237383307 0  0.5853796656486387 0.190165070923677 0  0.5903170204397968 0.1897013042456709 0  0.5952532605343012 0.1892358773114875 0  0.5933451545120439 0.1692720411698645 0  0.5884043102005575 0.1697422582157624 0  0.5834620514847064 0.1702113615276856 0  0.578521953721131 0.1706830724106969 0  0.5735840368566734 0.1711563376674433 0  0.5686521832877606 0.1716290934137623 0  0.5637268226912209 0.1721031037671769 0  0.558806139552211 0.1725778413195526 0  0.5538952188803988 0.1730479128217831 0  0.5489891726230297 0.1735174625146364 0  0.5440896044629041 0.1739808473894724 0  0.5391943802767952 0.1744438009791153 0  0.5342975465658201 0.1749034581039408 0  0.5294038451794595 0.175355435922993 0  0.5245100355327668 0.1758085526132326 0  0.5196111473156724 0.1762578652190274 0  0.5147123087527055 0.1767020941088943 0  0.5098080184230163 0.1771482005249277 0  0.5048994800969192 0.1775903728615726 0  0.4999901933481013 0.1780313808717825 0  0.4950745806131238 0.1784726304229363 0  0.4901595278267218 0.1789078955422757 0  0.4852457568913628 0.1793448071434409 0  0.480327804127237 0.1797754650780739 0  0.4754148263838539 0.180194050013101 0  0.4705055425029452 0.1806119945326892 0  0.4655934478905951 0.1810170055776101 0  0.4606855955243966 0.181403543033775 0  0.4557787124079512 0.1817881501163974 0  0.450864361622923 0.1821521537937335 0  0.4459501340464692 0.1824958054639168 0  0.4410367536499707 0.1828365447144613 0  0.4361143816679612 0.1831588201196006 0  0.4311877757574942 0.1834755161059041 0  0.4262560595928014 0.1837831038923462 0  0.421320884247387 0.1840845300091525 0  0.4163848350037384 0.1843837538083625 0  0.4114491591504295 0.1846793233418247 0  0.4065154289572582 0.1849732839563395 0  0.4015842393725703 0.1852643371246784 0  0.3966564172489923 0.1855512822375426 0  0.3917311206156837 0.1858339370154796 0  0.3868088272055921 0.1861100708955275 0  0.3818891747649162 0.1863823459676277 0  0.3769689655134494 0.1866458887175078 0  0.3720501429120886 0.1869039866231973 0  0.3671288353784202 0.1871568659832756 0  0.3622076666606783 0.1874035562416443 0  0.3572859972821855 0.1876463088452654 0  0.3523654320714581 0.1878818723367136 0  0.3474502180791814 0.1881118136475004 0  0.3425339717307764 0.1883305689141622 0  0.3376234646201937 0.1885365502789387 0  0.3327086890590721 0.1887304654926869 0  0.327794695661295 0.1889055610050731 0  0.3228818470041905 0.1890760331778332 0  0.3179650693401683 0.1892264464063132 0  0.3130535935884551 0.1893638950595905 0  0.3081353628125714 0.1894882713663433 0  0.3032176617791853 0.1895934531610106 0  0.2982970282097536 0.1896880761083651 0  0.2933737643825823 0.1897655174346667 0  0.2884531129737068 0.1898325419207907 0  0.2835248989360094 0.1898869408024703 0  0.2785992070289706 0.1899290935676911 0  0.2736683984417271 0.1899600107570694 0  0.2687382920419086 0.1899815168556838 0  0.2638041091158658 0.1899966874194377 0  0.2588680841061046 0.1900038344666432 0  0.2539304911036304 0.1900016796618394 0  0.5987599679867169 0.1737931707729941 0  0.5997128088413681 0.1837765537490884 0  0.2589811817779921 0.2005593675824453 0  0.5425860358491265 0.1840970200805717 0  0.5675242742128598 0.1817291175753605 0  0.2774856458729435 0.2007433367431489 0  0.5135262990135782 0.1867149280513714 0  0.5282388161911519 0.1853445181574438 0  0.2945506211001243 0.1990580089893121 0  0.5819917614339832 0.1799486373055403 0  0.3104762215918322 0.1994179287601584 0  0.3370825186027149 0.1993974431082556 0  0.498777570561229 0.1880695040879183 0  0.3552983359284866 0.1977493376463692 0  0.4839969084864666 0.1893968355404771 0  0.3707202655711773 0.1969943387557347 0  0.3898114516534604 0.1959524524134942 0  0.468805797605679 0.1903397157755782 0  0.4540445681533806 0.191956488609717 0  0.4042519703966795 0.1952252829409664 0  0.4194443192914794 0.1942308499988408 0  0.4386040414810442 0.1930244407059656 0  0.3203135680792107 0.1991813019352835 0  0.5577352264863989 0.1826644666527989 0  0.4279575839026419 0.1935622608792875 0  0.3468045147754992 0.1982994335540361 0  0.3813302495142325 0.196570470112518 0  0.2861081842410813 0.199912359835459 0  0.5902034873626233 0.1778717365470049 0  0.2680137956024516 0.2016672172288305 0  0.4616159538280146 0.1936291593440822 0  0.4912266437655847 0.1911041301451356 0  0.5060003140345402 0.1897610888824811 0  0.3970827233740008 0.1932890297938642 0  0.4764269582953909 0.1924065542099836 0  0.5207350285431185 0.1883962500791808 0  0.4467921735703369 0.1947335842890061 0  0.5354423414949693 0.1870198128595068 0  0.4118943920216091 0.1924249115390374 0  0.3625885912826671 0.1951409121461997 0  0.3033835962340687 0.1973565183567927 0  0.574332911288496 0.1788612189183847 0  0.5495711321662434 0.1805684674967075 0  0.3283544342102138 0.2017709600353946 0  0.5481740456700736 0.1874212878137479 0  0.3301547426223204 0.1949948657907777 0  0.5370465364045924 0.1807455924100216 0  0.5223510745119733 0.1821178918622597 0  0.5076327977783657 0.1834763612432778 0  0.5771086274878796 0.1847634356708481 0  0.3013182164656987 0.2035196378460734 0  0.4781082818309179 0.1861249704462932 0  0.4928798441238598 0.1848175460211975 0  0.3952382303218729 0.1995222863257947 0  0.3607005692746258 0.2013588577086132 0  0.4589697121460342 0.1877006641889054 0  0.4485596222073688 0.1884723199468365 0  0.4100609814578101 0.1986674737037761 0  0.2557856431691828 0.1960931489411258 0  0.2550209497175696 0.2034472426594874 0  0.4349454343828513 0.1970542665817186 0  0.3744124896543176 0.1930126435224026 0  0.340505720615952 0.1944726592897273 0  0.2812941591012801 0.1959652117799926 0  0.2912598489416936 0.1958921290435418 0  0.4248085636840067 0.197865890730214 0  0.3500103010375882 0.1940483235075956 0  0.3844968379722242 0.192292857785469 0  0.3165874629981363 0.1954408055329735 0  0.5618257212082084 0.1860900729782215 0  0.5613757769467221 0.1784018451078979 0  0.3164143947470507 0.203151375806797 0  0.2710844826366017 0.1959503488681933 0  0.5870071789382595 0.1846950510117151 0  0.4342823306063675 0.1887693503426808 0  0.4239771354779301 0.1898223247267475 0  0.3404978734886885 0.2032135020266438 0  0.2809479270259085 0.2046923597765523 0  0.2915260497325786 0.2045845757350843 0  0.3749757293807238 0.2012913941110085 0  0.3501815104573498 0.2031620680185011 0  0.384744992920566 0.2014066556458312 0  0.2648140219604077 0.1962083731683527 0  0.5939559330829647 0.1833561822328307 0  0.5312316579346641 0.1808110635827757 0  0.5165313970663599 0.1821773841705497 0  0.3071550453880679 0.2038670774650899 0  0.5017996401274726 0.1835278545535499 0  0.5713540879373484 0.1857734298561277 0  0.4870374797157088 0.1848576899056427 0  0.4723096347339111 0.1861333019755144 0  0.3665399697071105 0
[...]
<PointData  Vectors="d"> 
<DataArray  type="Float64"  Name="d"  NumberOfComponents="3" format="ascii">-1.7165301272772217e-03 -2.1199041612091032e-02 0.0000000000000000e+00  1.8833188497485590e-04 -2.1231496727969885e-02 0.0000000000000000e+00  0.0000000000000000e+00 0.0000000000000000e+00 0.0000000000000000e+00  0.0000000000000000e+00 0.0000000000000000e+00 0.0000000000000000e+00  -7.6383014918945914e-04 -2.1215542731182008e-02 0.0000000000000000e+00  0.0000000000000000e+00 0.0000000000000000e+00 0.0000000000000000e+00  0.0000000000000000e+00 0.0000000000000000e+00 0.0000000000000000e+00  0.0000000000000000e+00 0.0000000000000000e+00 0.0000000000000000e+00  0.0000000000000000e+00 0.0000000000000000e+00 0.0000000000000000e+00  1.0967346664701421e-05 -5.4159991451655730e-06 0.0000000000000000e+00  2.6501119271436775e-05 -7.8048610752684442e-06 0.0000000000000000e+00  4.4478658133754678e-05 -1.0806982185744307e-05 0.0000000000000000e+00  6.5711472932191179e-05 -2.4419571602118558e-05 0.0000000000000000e+00  8.9628766928388244e-05 -4.5863376481982075e-05 0.0000000000000000e+00  1.1789081532089452e-04 -7.8462329685528872e-05 0.0000000000000000e+00  1.4604546712359884e-04 -1.1915233501135755e-04 0.0000000000000000e+00  1.7476880122874278e-04 -1.7383556388598603e-04 0.0000000000000000e+00  2.0559834313558850e-04 -2.4094472562586383e-04 0.0000000000000000e+00  2.3587941085751788e-04 -3.2196802923460693e-04 0.0000000000000000e+00  2.6861848169825185e-04 -4.2309766592649411e-04 0.0000000000000000e+00  3.0173147214052900e-04 -5.2802068269944377e-04 0.0000000000000000e+00  3.3045117588649916e-04 -6.5673279329653007e-04 0.0000000000000000e+00  3.6311856512365859e-04 -7.9872563167578364e-04 0.0000000000000000e+00  3.8834194699954985e-04 -9.5364759506351622e-04 0.0000000000000000e+00  4.1264237424100045e-04 -1.1265957585832216e-03 0.0000000000000000e+00  4.3382343591307908e-04 -1.3100460911368605e-03 0.0000000000000000e+00  4.5137292635991674e-04 -1.5111574065173584e-03 0.0000000000000000e+00  4.6469426486583438e-04 -1.7186517450069854e-03 0.0000000000000000e+00  4.7574100564404465e-04 -1.9393300709912196e-03 0.0000000000000000e+00  4.8337696657306631e-04 -2.1682578154636829e-03 0.0000000000000000e+00  4.8777689162096178e-04 -2.4042901000105527e-03 0.0000000000000000e+00  4.9064872937673880e-04 -2.6496961643966352e-03 0.0000000000000000e+00  4.9230758549846155e-04 -2.8965418097779954e-03 0.0000000000000000e+00  4.8984107182679470e-04 -3.1524724289518596e-03 0.0000000000000000e+00  4.8582241070452341e-04 -3.4112796114272393e-03 0.0000000000000000e+00  4.8050984274391513e-04 -3.6765641504784819e-03 0.0000000000000000e+00  4.7481972979833133e-04 -3.9463103593860467e-03 0.0000000000000000e+00  4.6935276020662343e-04 -4.2201957751005449e-03 0.0000000000000000e+00  4.6838282502361690e-04 -4.4996383718324384e-03 0.0000000000000000e+00  4.6739675286235977e-04 -4.7790539722712445e-03 0.0000000000000000e+00  4.7025175240837392e-04 -5.0646616194977186e-03 0.0000000000000000e+00  4.7718862563259215e-04 -5.3539067588196905e-03 0.0000000000000000e+00  4.8509546227946715e-04 -5.6451827170245703e-03 0.0000000000000000e+00  4.9674127732183355e-04 -5.9434631194012974e-03 0.0000000000000000e+00  5.1109491051785276e-04 -6.2474915532111921e-03 0.0000000000000000e+00  5.2596000691448744e-04 -6.5596711679163791e-03 0.0000000000000000e+00  5.4470153782196706e-04 -6.8837475608983841e-03 0.0000000000000000e+00  5.6109136505585154e-04 -7.2158874532405890e-03 0.0000000000000000e+00  5.7711565705736924e-04 -7.5629972469289167e-03 0.0000000000000000e+00  5.9435569048343776e-04 -7.9218488165633399e-03 0.0000000000000000e+00  6.1152745449867801e-04 -8.2952141108669098e-03 0.0000000000000000e+00  6.2395376606193622e-04 -8.6807010063869126e-03 0.0000000000000000e+00  6.3672304256649672e-04 -9.0773011298412726e-03 0.0000000000000000e+00  6.4788018850455754e-04 -9.4865263012235829e-03 0.0000000000000000e+00  6.5289546266261548e-04 -9.9044004264172408e-03 0.0000000000000000e+00  6.5708986518702047e-04 -1.0329307533087632e-02 0.0000000000000000e+00  6.5900464833233425e-04 -1.0762604775324513e-02 0.0000000000000000e+00  6.5391827430569683e-04 -1.1201014384768797e-02 0.0000000000000000e+00  6.4662367922947012e-04 -1.1642694949665761e-02 0.0000000000000000e+00  6.3578413558368569e-04 -1.2089445349078982e-02 0.0000000000000000e+00  6.1784804400192087e-04 -1.2540011396714776e-02 0.0000000000000000e+00  5.9587229180571187e-04 -1.2991921607129140e-02 0.0000000000000000e+00  5.6904024488686105e-04 -1.3446544274129805e-02 0.0000000000000000e+00  5.3718225909428247e-04 -1.3903015079973451e-02 0.0000000000000000e+00  5.0174620671669895e-04 -1.4359326113668826e-02 0.0000000000000000e+00  4.6341562894533760e-04 -1.4816183480769698e-02 0.0000000000000000e+00  4.2379539152517868e-04 -1.5272626362521658e-02 0.0000000000000000e+00  3.8654258572690667e-04 -1.5729539413108940e-02 0.0000000000000000e+00  3.5162910098680009e-04 -1.6183720359188625e-02 0.0000000000000000e+00  3.1756480446280198e-04 -1.6635882220640080e-02 0.0000000000000000e+00  2.8721315217668090e-04 -1.7092033529438954e-02 0.0000000000000000e+00  2.6597919629850621e-04 -1.7543961226518807e-02 0.0000000000000000e+00  2.4747519558773859e-04 -1.7999357487512840e-02 0.0000000000000000e+00  2.3445140782213126e-04 -1.8456448384253765e-02 0.0000000000000000e+00  2.2473199771438744e-04 -1.8913263437149077e-02 0.0000000000000000e+00  2.1718403532239146e-04 -1.9373976261669389e-02 0.0000000000000000e+00  2.1108276560470710e-04 -1.9834929076323022e-02 0.0000000000000000e+00  2.0463185111617554e-04 -2.0298695754329129e-02 0.0000000000000000e+00  1.9706623996056883e-04 -2.0764122688512569e-02 0.0000000000000000e+00  -1.7110397823392666e-03 -2.0727958830135434e-02 0.0000000000000000e+00  -1.7080783882004768e-03 -2.0257741784237650e-02 0.0000000000000000e+00  -1.7065313984128390e-03 -1.9788638472314369e-02 0.0000000000000000e+00  -1.7028234563415618e-03 -1.9316927589303041e-02 0.0000000000000000e+00  -1.6969346151780866e-03 -1.8843662332556719e-02 0.0000000000000000e+00  -1.6849824784707548e-03 -1.8370906586237787e-02 0.0000000000000000e+00  -1.6665373693972791e-03 -1.7896896232823142e-02 0.0000000000000000e+00  -1.6434148027774562e-03 -1.7422158680447410e-02 0.0000000000000000e+00  -1.6105297689590298e-03 -1.6952087178216991e-02 0.0000000000000000e+00  -1.5727703206739046e-03 -1.6482537485363592e-02 0.0000000000000000e+00  -1.5285327752001931e-03 -1.6019152610527495e-02 0.0000000000000000e+00  -1.4799512557096212e-03 -1.5556199020884752e-02 0.0000000000000000e+00  -1.4329792610759894e-03 -1.5096541896059322e-02 0.0000000000000000e+00  -1.3828749418033886e-03 -1.4644564077007021e-02 0.0000000000000000e+00  -1.3328788828959855e-03 -1.4191447386767296e-02 0.0000000000000000e+00  -1.2879613943520966e-03 -1.3742134780972491e-02 0.0000000000000000e+00  -1.2429942517162770e-03 -1.3297905891105700e-02 0.0000000000000000e+00  -1.2034788758062500e-03 -1.2851799475072293e-02 0.0000000000000000e+00  -1.1682114962984344e-03 -1.2409627138427444e-02 0.0000000000000000e+00  -1.1336925394791017e-03 -1.1968619128217459e-02 0.0000000000000000e+00  -1.1054995688481589e-03 -1.1527369577063708e-02 0.0000000000000000e+00  -1.0767466496312431e-03 -1.1092104457724263e-02 0.0000000000000000e+00  -1.0467118793715164e-03 -1.0655192856559062e-02 0.0000000000000000e+00  -1.0208589378674830e-03 -1.0224534921926102e-02 0.0000000000000000e+00  -9.9003097564274523e-04 -9.8059499868989406e-03 0.0000000000000000e+00  -9.5550915092316416e-04 -9.3880054673108927e-03 0.0000000000000000e+00  -9.2379805766039185e-04 -8.9829944223899019e-03 0.0000000000000000e+00  -8.8784471823840120e-04 -8.5964569662248923e-03 0.0000000000000000e+00  -8.5092212905902003e-04 -8.2118498836026184e-03 0.0000000000000000e+00  -8.2146720845775246e-04 -7.8478462062664227e-03 0.0000000000000000e+00  -7.9188907930244595e-04 -7.5041945360832460e-03 0.0000000000000000e+00  -7.6146377017588594e-04 -7.1634552855387688e-03 0.0000000000000000e+00  -7.4003004656854354e-04 -6.8411798803995035e-03 0.0000000000000000e+00  -7.2283025141888294e-04 -6.5244838940958054e-03 0.0000000000000000e+00  -7.1074071048512252e-04 -6.2168961076537266e-03 0.0000000000000000e+00  -7.0211035026124008e-04 -5.9154699908475312e-03 0.0000000000000000e+00  -6.9435388826728024e-04 -5.6162461916374725e-03 0.0000000000000000e+00  -6.8622403592981851e-04 -5.3206766581754272e-03 0.0000000000000000e+00  -6.7614852344141858e-04 -5.0267160436605028e-03 0.0000000000000000e+00  -6.6353240247743516e-04 -4.7356628753216432e-03 0.0000000000000000e+00  -6.4754882039792707e-04 -4.4487177624574024e-03 0.0000000000000000e+00  -6.2903974807106534e-04 -4.1660629845203844e-03 0.0000000000000000e+00  -6.0752745251619711e-04 -3.8899291044725576e-03 0.0000000000000000e+00  -5.8337418756607357e-04 -3.6176540323722725e-03 0.0000000000000000e+00  -5.5977773337645366e-04 -3.3541112824922426e-03 0.0000000000000000e+00  -5.3479462908866257e-04 -3.0960133768027360e-03 0.0000000000000000e+00  -5.1229645708825351e-04 -2.8431340167244163e-03 0.0000000000000000e+00  -4.8965946918317347e-04 -2.5964437583557627e-03 0.0000000000000000e+00  -4.6752314202532170e-04 -2.3536911547345192e-03 0.0000000000000000e+00  -4.4428264713087650e-04 -2.1181276632864930e-03 0.0000000000000000e+00  -4.1569093374966800e-04 -1.8881863524996133e-03 0.0000000000000000e+00  -3.8813157651543267e-04 -1.6694310858377671e-03 0.0000000000000000e+00  -3.5483298145988853e-04 -1.4634497210613058e-03 0.0000000000000000e+00  -3.2580283694306263e-04 -1.2695345073130307e-03 0.0000000000000000e+00  -2.9599052907981847e-04 -1.0944389949268942e-03 0.0000000000000000e+00  -2.6503348052672770e-04 -9.2396682216680894e-04 0.0000000000000000e+00  -2.3800543889063915e-04 -7.7355359368672517e-04 0.0000000000000000e+00  -2.0567548494601002e-04 -6.3610494040967122e-04 0.0000000000000000e+00  -1.8010055518678176e-04 -5.1172863365668477e-04 0.0000000000000000e+00  -1.5399588293426615e-04 -4.0654683898938397e-04 0.0000000000000000e+00  -1.3082374672769210e-04 -3.1192389163493421e-04 0.0000000000000000e+00  -1.1028186826072982e-04 -2.3448256533329460e-04 0.0000000000000000e+00  -8.7127571480630580e-05 -1.6745807920931377e-04 0.0000000000000000e+00  -7.1535903520269031e-05 -1.1305919752974563e-04 0.0000000000000000e+00  -5.3422104901074390e-05 -7.0906432308944775e-05 0.0000000000000000e+00  -4.0424986497354072e-05 -3.9989242930569046e-05 0.0000000000000000e+00  -2.6725680677446207e-05 -1.8483144316223057e-05 0.0000000000000000e+00  -1.7102901081899417e-05 -3.3125805622270805e-06 0.0000000000000000e+00  -9.3222052045231260e-06 3.8344666431837880e-06 0.0000000000000000e+00  -3.1095020276063230e-06 1.6796618394185431e-06 0.0000000000000000e+00  -1.2400320132831390e-03 -2.1206829226984223e-02 0.0000000000000000e+00  -2.8719115863212155e-04 -2.1223446250884428e-02 0.0000000000000000e+00  7.7552463428028268e-06 6.9782396050091716e-06 0.0000000000000000e+00  -5.6019853618096262e-04 -1.5902979919397285e-02 0.0000000000000000e+00  -7.1551526395622104e-04 -1.8241341005538227e-02 0.0000000000000000e+00  3.4253161141120486e-05 -5.0855199043789548e-05 0.0000000000000000e+00  -3.2328436331879911e-04 -1.3187414597720468e-02 0.0000000000000000e+00  -4.4218430258614205e-04 -1.4557824491653016e-02 0.0000000000000000e+00  3.9725894359603381e-05 -2.3318185122656393e-04 0.0000000000000000e+00  -7.8632170450927609e-04 -1.9594342794794637e-02 0.0000000000000000e+00  6.3381934906697152e-05 -5.5252982073935035e-04 0.0000000000000000e+00  8.2343060859853135e-05 -1.4320181351411855e-03 0.0000000000000000e+00  -2.4059569881703847e-04 -1.1832838561171878e-02 0.0000000000000000e+00  1.6718357582131160e-05 -2.2506623536916650e-03 0.0000000000000000e+00  -1.8984065672595634e-04 -1.0505507108607802e-02 0.0000000000000000e+00  -1.7105819377838901e-05 -3.0198989396341813e-03 0.0000000000000000e+00  -7.6805856789094392e-05 -4.0475475865886209e-03 0.0000000000000000e+00  -1.7995744359445480e-04 -9.2019566500911986e-03 0.0000000000000000e+00  -1.1316353081589838e-04 -8.0435113901927476e-03 0.0000000000000000e+00  -1.0152100515363062e-04 -4.8723744099580159e-03 0.0000000000000000e+00  -1.0677245247734860e-04 -5.7691500012649602e-03 0.0000000000000000e+00  -9.7936383406890064e-05 -6.9613215987116405e-03 0.0000000000000000e+00  6.6293053540472224e-05 -8.2758227935638611e-04 0.0000000000000000e+00  -6.7012762168615911e-04 -1.7326649132558880e-02 0.0000000000000000e+00  -1.0913078607159491e-04 -6.2866439415366635e-03 0.0000000000000000e+00  3.8520148951767313e-05 -1.8516616254013805e-03 0.0000000000000000e+00  -4.2385051658189406e-05 -3.5806250669339333e-03 0.0000000000000000e+00  3.9846548871402631e-05 -1.2918473515915040e-04 0.0000000000000000e+00  -9.1889381549642402e-04 -2.0373179387869467e-02 0.0000000000000000e+00  2.4479456588972276e-05 -7.9084178986005081e-06 0.0000000000000000e+00  4.2513585386772474e-05 -8.6212039847181430e-03 0.0000000000000000e+00  -9.6307107606070838e-06 -1.1146233183673524e-02 0.0000000000000000e+00  -6.7377558658139974e-05 -1.2489274446330686e-02 0.0000000000000000e+00  -2.2124269467675408e-04 -4.4606068773323090e-03 0.0000000000000000e+00  2.2100935901325668e-05 -9.8438091188214338e-03 0.0000000000000000e+00  -1.6408016692710974e-04 -1.3854113249637720e-02 0.0000000000000000e+00  5.0150444571268863e-05 -7.5167790397938604e-03 0.0000000000000000e+00  -2.8818433191543527e-04 -1.5230550469313079e-02 0.0000000000000000e+00  -2.4099116392242636e-04 -5.3247251321603224e-03 0.0000000000000000e+00  -1.0873484666806150e-04 -2.6087245249922005e-03 0.0000000000000000e+00  1.1938572172815646e-05 -3.9311831439420200e-04 0.0000000000000000e+00  -9.4806018332693059e-04 -1.8888417752765625e-02 0.0000000000000000e+00  -8.8872375281275442e-04 -1.6560010977059138e-02 0.0000000000000000e+00  1.6166099552960943e-04 -1.1005614908460924e-03 0.0000000000000000e+00  -2.4385637967237866e-04 -1.6419033755728413e-02 0.0000000000000000e+00  -7.9984461678335046e-05 -1.1648126397714154e-03 0.0000000000000000e+00  -8.7454881921897537e-04 -1.5379589254389456e-02 0.0000000000000000e+00  -7.3859359499180361e-04 -1.4007289802146035e-02 0.0000000000000000e+00  -6.2545321175645481e-04 -1.2648820421132034e-02 0.0000000000000000e+00  -3.6290338082963441e-04 -1.9111382664740578e-02 0.0000000000000000e+00  1.3711820074406757e-04 -3.5518048952034925e-04 0.0000000000000000e+00  -4.8713492549326635e-04 -1.0000211218110839e-02 0.0000000000000000e+00  -5.4698974940734098e-04 -1.1307635643208800e-02 0.0000000000000000e+00  1.2482365010992659e-04 -4.3525320098019406e-03 0.0000000000000000e+00  1.9380254221408353e-04 -2.5159606269818491e-03 0.0000000000000000e+00  -4.1316869968024869e-04 -8.4245174754938711e-03 0.0000000000000000e+00  -3.7296031531158092e-04 -7.6528617175641543e-03 0.0000000000000000e+00  1.1615766918808073e-04 -5.2073446318228606e-03 0.0000000000000000e+00  -6.5681101416501678e-07 7.3119153962532109e-06 0.0000000000000000e+00  6.2136866297401391e-06 4.5996603759364721e-06 0.0000000000000000e+00  1.4228673638239244e-04 -6.7194911824368150e-03 0.0000000000000000e+00  -2.2371195409236552e-04 -3.2135987134527424e-03 0.0000000000000000e+00  -1.2011597047849527e-04 -1.5741329042617057e-03 0.0000000000000000e+00  -6.0090177031748961e-06 -8.1580414057466253e-05 0.0000000000000000e+00  -8.7898022956018208e-06 -1.8950382138643561e-04 0.0000000000000000e+00  1.3803010201748293e-04 -6.0873170757403828e-03 0.0000000000000000e+00  -1.5187469532466116e-04 -1.9984686865921228e-03 0.0000000000000000e+00  -2.7197770004514172e-04 -3.7539344087669868e-03 0.0000000000000000e+00  -4.4905540219637942e-05 -7.1865303039646408e-04 0.0000000000000000e+00  -3.2927989713276557e-04 -1.7691576281677633e-02 0.0000000000000000e+00  -1.0656107552548075e-03 -1.7674347253239801e-02 0.0000000000000000e+00  1.7489116373786923e-04 -7.1657993567210583e-04 0.0000000000000000e+00  -4.2307841604717011e-06 -1.9295464390451787e-05 0.0000000000000000e+00  -2.9425870210099164e-04 -2.0027737091367188e-02 0.0000000000000000e+00  -3.8562603790348333e-04 -6.6957956125705594e-03 0.0000000000000000e+00  -3.5251492986849032e-04 -6.0533733671587608e-03 0.0000000000000000e+00  2.4192240533618019e-04 -1.5805480024484488e-03 0.0000000000000000e+00  7.9434349815194687e-05 -8.1882004713355343e-05 0.0000000000000000e+00  1.1834641870630976e-04 -1.9637597201120131e-04 0.0000000000000000e+00  2.0433677023052034e-04 -3.2434599338468585e-03 0.0000000000000000e+00  2.5986156746313715e-04 -2.0132733001293809e-03 0.0000000000000000e+00  2.1670409133628415e-04 -3.7686856728048066e-03 0.0000000000000000e+00  -4.6458509770769371e-07 -6.0113028471428055e-07 0.0000000000000000e+00  -3.6883128332460062e-04 -2.0685360126087540e-02 0.0000000000000000e+00  -8.6560311095026986e-04 -1.4833446322311492e-02 0.0000000000000000e+00  -7.3444686241281231e-04 -1.3467125734535734e-02 0.0000000000000000e+00  1.6271982780218631e-04 -4.7972592216520977e-04 0.0000000000000000e+00  -6.3478668445392120e-04 -1.2116655351536530e-02 0.0000000000000000e+00  -3.0621563608637133e-04 -1.8573373531148518e-02 0.0000000000000000e+00  -5.6552997936529768e-04 -1.0786819999440450e-02 0.0000000000000000e+00  -5.0556279571514838e-04 -9.5069449154750255e-03 0.0000000000000000e+00  2.0979205435665970e-04 -2.8084591330587820e-03 0.0000000000000000e+00  -4.7170848627246787e-04 -8.8784555718334351e-03 0.0000000000000000e+00  1.4432062109701917e-04 -4.6867432742481252e-03 0.0000000000000000e+00  -3.9253749940053838e-04 -7.2496132036895759e-03 0.0000000000000000e+00  1.4945161640173289e-04 -5.5519905248785830e-03 0.0000000000000000e+00  -1.1599400675259813e-03 -1.9932556074910519e-02 0.0000000000000000e+00  -2.2587282822036030e-04 -1.6954538540777008e-02 0.0000000000000000e+00  -8.4057854405259879e-05 -9.6297302227965262e-04 0.0000000000000000e+00  5.1354887202969934e-05 -2.5215930652449044e-05 0.0000000000000000e+00  2.4696512932853285e-05 -4.6465950675548101e-07 0.0000000000000000e+00  2.2104041295611877e-04 -8.2650975023261294e-03 0.0000000000000000e+00  -3.7288386913875946e-04 -5.5981429120497946e-03 0.0000000000000000e+00  2.2130623942239166e-04 -9.4549174064200679e-03 0.0000000000000000e+00  7.9135164202393917e-05 -1.3427313891070632e-02 0.0000000000000000e+00  1.9865381738108089e-04 -1.0734635618794553e-02 0.0000000000000000e+00  1.5851442251823631e-04 -1.2067134411553668e-02 0.0000000000000000e+00  -3.2257860417539560e-04 -4.7444655799794974e-03 0.0000000000000000e+00  1.9793303456952586e-04 -7.2037510149045823e-03 0.0000000000000000e+00  -2.3115022372807123e-04 -2.8394258092242323e-03 0.0000000000000000e+00  -3.3881088965336968e-04 -4.1837645476596672e-03 0.0000000000000000e+00  -1.0632936574533412e-04 -1.5690067649105324e-02 0.0000000000000000e+00  -2.1008246786009791e-04 -2.3685613330600599e-03 0.0000000000000000e+00  -9.8227346622388473e-05 -1.4779867900957857e-02 0.0000000000000000e+00  -4.4427697639331930e-05 -4.9476035765493953e-04 0.0000000000000000e+00  -3.1433153711310555e-05 -3.0286207272905584e-04 0.0000000000000000e+00  -1.1676869502986117e-03 -1.9290180750939866e-02 0.0000000000000000e+00  -1.1673569731933573e-03 -1.8427048975100120e-02 0.0000000000000000e+00  2.1499712396403311e-05 -1.2972731696800540e-02 0.0000000000000000e+00  8.9183605879302773e-05 -1.1619603665282278e-02 0.0000000000000000e+00  1.5979117864929385e-04 -9.0308864289077393e-03 0.0000000000000000e+00  -6.2761664227360429e-05 -1.4331546114365401e-02 0.0000000000000000e+00  1.2326108108320981e-04 -1.0299488860172731e-02 0.0000000000000000e+00  1.6736564817507266e-04 -7.8841877022106585e-03 0.0000000000000000e+00  -3.2693111782408846e-04 -5.0261725377577973e-03 0.0000000000000000e+00  2.1737566534426822e-04 -9.4341476394122555e-04 0.0000000000000000e+00  -1.0972544889717849e-03 -1.6984170749180478e-02 0.0000000000000000e+00  -1.0098929986583293e-03 -1.6104743455310207e-02 0.0000000000000000e+00  2.2794239021017615e-04 -1.2824033334591861e-03 0.0000000000000000e+00  -3.985174335998470