<?xml version="1.0"?>
<VTKFile type="UnstructuredGrid"  version="0.1"  >
<UnstructuredGrid>
<Piece  NumberOfPoints="439" NumberOfCells="725">
<Points>
<DataArray  type="Float64"  NumberOfComponents="3"  format="ascii">0.5631340897715253 0.05453321622007697 0  0.5735900075173529 0.07160555001217792 0  0.2489897949 0.21 0  0.2489897949 0.19 0  0.5683622297776499 0.06306942232881253 0  0.2496355385699469 0.2060260530378829 0  0.249959460510575 0.2020130349814059 0  0.2499594605105767 0.1979869650186357 0  0.24963553856995 0.1939739469621422 0  0.2541121516828152 0.2098425560910111 0  0.2592521486474406 0.2096663800125664 0  0.2643885116607358 0.2094399141893465 0  0.2695078805828159 0.2090632620881843 0  0.2746115686968754 0.2086041504986126 0  0.2797128532106172 0.2080292445549941 0  0.2847885093951691 0.2073938590867194 0  0.2898346861876733 0.2066545015096951 0  0.2948706202103749 0.2058317653098156 0  0.2998823487073163 0.2049271822232065 0  0.3048835742127283 0.2039111938457633 0  0.3098798815353819 0.2028765462509524 0  0.3148271122748059 0.2017222233020983 0  0.3197848967261981 0.2004982907400548 0  0.3246947630234182 0.199219038629351 0  0.3295889084766504 0.197851314368468 0  0.3344606778486424 0.1964346248494367 0  0.3393026453802081 0.1949348504099597 0  0.3441210339343652 0.1934020106812112 0  0.348916067004142 0.1917983034724967 0  0.3536865273768333 0.190146728369559 0  0.358431160097114 0.1884483374970143 0  0.3631572415505053 0.186669022994383 0  0.3678791943660197 0.1848776460743398 0  0.372563406996853 0.1830177536151339 0  0.3772282690871634 0.1811296467856413 0  0.3818719260483098 0.1791887056000094 0  0.3864955959640328 0.1772104145423029 0  0.3910972582650534 0.1751970219979934 0  0.3956835809777143 0.1731224736470665 0  0.4002670322628505 0.171042380585582 0  0.4048152032283308 0.1689126318725594 0  0.4093502848751914 0.1667404106078939 0  0.4138806040875292 0.1645583742018942 0  0.4183805577362918 0.1623313735152994 0  0.4228792839923269 0.1600785354137621 0  0.4273525422494582 0.1577994500114688 0  0.431819638390941 0.1554851107238677 0  0.4362668992823805 0.1531535073253552 0  0.4406981384373423 0.1507920707833842 0  0.4451210262370486 0.148407898889147 0  0.4495318013748887 0.1459980191759448 0  0.4539246790735547 0.143566834050989 0  0.4583103407527596 0.1411148428418746 0  0.4626841382695677 0.1386398916612093 0  0.4670421403964019 0.1361465747783974 0  0.4713924462063045 0.1336363433061075 0  0.475732035784793 0.1311073178315419 0  0.4800587408841286 0.1285652183460691 0  0.4843783149987996 0.1260108430551775 0  0.4886883264952059 0.1234431312704589 0  0.4929875602916762 0.120866930598284 0  0.4972801375459206 0.1182834518238508 0  0.5015639495824128 0.1156920048796773 0  0.5058390715324684 0.1130968190261484 0  0.5101082228332738 0.1104982305221084 0  0.5143695906346791 0.1078966109345852 0  0.5186236874240007 0.1052946405876928 0  0.5228723368483913 0.1026926497435263 0  0.5271151373802337 0.100092278975946 0  0.5313520016241611 0.09749411425721276 0  0.535586817158497 0.0948962750155341 0  0.5398164467604873 0.09230143749763686 0  0.5440424751840155 0.08970808608279172 0  0.548267047241032 0.08711754217327058 0  0.5524887340009994 0.08452986580778406 0  0.5567099645250431 0.08194270699465871 0  0.5609304400893999 0.07935780446912961 0  0.56515000803876 0.07677374114115028 0  0.5693699802863788 0.0741895128385979 0  0.5589134593553695 0.057117935128931 0  0.5546923258299656 0.05970201775918277 0  0.5504711481316376 0.06228565198747625 0  0.5462490817383261 0.06486864425212656 0  0.5420256284924626 0.06745179181235983 0  0.5378012373526687 0.0700342270635997 0  0.5335742769356248 0.07261710255273597 0  0.5293448265965307 0.07519972843434888 0  0.5251134708915429 0.07778311588789856 0  0.52087856248513 0.08036695678027043 0  0.5166416854987584 0.08295059313099717 0  0.5124014377546796 0.08553521382232297 0  0.5081573085208003 0.08811909217677566 0  0.5039126570060506 0.09070160291288035 0  0.4996637850260883 0.09328285868310571 0  0.4954118078267275 0.09585896811295072 0  0.4911600024565421 0.09843293972952026 0  0.4869026686018157 0.1010008414565416 0  0.4826433323745967 0.1035576308193055 0  0.4783850754891334 0.1061109996230308 0  0.4741191022795262 0.1086513012661295 0  0.4698512463932728 0.1111733012670408 0  0.4655850141028547 0.1136902121387566 0  0.4613075060003416 0.1161866186901098 0  0.4570269464407888 0.1186573854679812 0  0.4527467161791198 0.1211187762182098 0  0.4484553641163722 0.1235566412376933 0  0.4441571063104488 0.125962058629072 0  0.4398579008952164 0.128361445715144 0  0.435538081023578 0.130729900212861 0  0.4312136633951981 0.1330592275377428 0  0.4268892607185336 0.1353793712830841 0  0.4225462478632896 0.1376626023516756 0  0.4181933643429605 0.1399278118975487 0  0.4138303720656566 0.1421619188126476 0  0.4094511989339851 0.1443594398622272 0  0.4050734923860204 0.1465345007715959 0  0.4006781427259832 0.1486735243125172 0  0.3962786370459878 0.1507797552972819 0  0.3918703341888838 0.1528481644353361 0  0.3874473630420251 0.1548777870712254 0  0.3830071511209807 0.1568797705064413 0  0.3785522007633776 0.1588372272448791 0  0.3741066061222353 0.1607568051751413 0  0.369628979957454 0.1626304584619982 0  0.3651532399509066 0.1644486721765765 0  0.3606510201007571 0.1662340104052565 0  0.356137235095688 0.1679585901420144 0  0.3516034627481155 0.1696494319238378 0  0.3470507662144631 0.1712827951911236 0  0.342511391256388 0.1728699598834147 0  0.3379334157978615 0.1744015323102068 0  0.3333634965269149 0.1758623375271477 0  0.3287542367853937 0.1772784246598443 0  0.3241352278177371 0.1786057198782137 0  0.3195200528170141 0.1799126257110416 0  0.3148737684329417 0.1811256198091732 0  0.3102488677890358 0.1822701055534318 0  0.3055813050014036 0.1833538575001806 0  0.3009070075385789 0.1843406747216275 0  0.2962162139754297 0.185275525296408 0  0.2915098022552344 0.186117560362019 0  0.286825532623234 0.18689430463138 0  0.2820968432476532 0.1875875157111648 0  0.2773957559545925 0.188192991432142 0  0.2726603279554259 0.1886969607091528 0  0.2679489986962013 0.1891120748303703 0  0.2632142870626398 0.1894625480812313 0  0.2584738776033159 0.1897071029662114 0  0.2537333354306551 0.1898313952769399 0  0.5657482253985163 0.05880132891127723 0  0.5709762694794346 0.06733766480776564 0  0.2589889309187303 0.2003911913581177 0  0.5197584856640595 0.09281626326643221 0  0.5412261258380217 0.07964494198380695 0  0.2774482859843609 0.1991746023037734 0  0.4944971186275718 0.1080864430703616 0  0.5072801702059625 0.1003212585059559 0  0.2941120131494033 0.1952197333600987 0  0.5534208385256352 0.07167983957341301 0  0.3097939637177011 0.1927215321639937 0  0.3356566721437593 0.1865739490772397 0  0.4816683806517424 0.1157979729041853 0  0.352726009745483 0.1799505151010332 0  0.4687863091752841 0.1234091180891352 0  0.3671706628980639 0.1745073447123445 0  0.3848154002824083 0.1670832641866929 0  0.4553367087050186 0.1307405118005527 0  0.4425296646924726 0.1384054579352149 0  0.398037939857064 0.1611927821118508 0  0.4117193859314031 0.1544928598579058 0  0.428836819765065 0.1457430248928226 0  0.3193407413094739 0.1904154840694506 0  0.5328272173418485 0.08480946570554607 0  0.4192894208895013 0.1505217703109844 0  0.3447382627430678 0.1829067232135678 0  0.3770542141715181 0.1705983729563139 0  0.2858980927106048 0.197276061569143 0  0.5598660991817137 0.06621138507580028 0  0.2680752602997288 0.2009564761392082 0  0.4501569045954992 0.1367771399048749 0  0.4761125945751732 0.1218472500224828 0  0.4889844082011277 0.1141734282956625 0  0.3906591781291763 0.1620002337569664 0  0.463175412847847 0.1293971491433207 0  0.5018009139604228 0.1064233324445202 0  0.4370402190483852 0.1439554175226368 0  0.5145687872311853 0.09863953393181472 0  0.4040615192597196 0.1557162136132401 0  0.3588827183339113 0.1752783037817615 0  0.3024787163451312 0.1920300690102362 0  0.5460799718392663 0.07406675893172746 0  0.5245252399460087 0.08652156844233971 0  0.3277626400432174 0.1910560611088069 0  0.5262892474267157 0.09334170497853116 0  0.3278773890229359 0.184026830793838 0  0.5132461640368119 0.09223067330417102 0  0.5004966581683027 0.0999972866983658 0  0.4877119007238196 0.1077330309958946 0  0.5511558181736089 0.07815239530081897 0  0.3015307952752654 0.1984601251934719 0  0.4620183030223277 0.122937573360776 0  0.4748887590437889 0.1153961172081641 0  0.391173517260208 0.1684936267860709 0  0.3589710354893998 0.1817792380946454 0  0.4452441875177852 0.1324523809687467 0  0.4360722718317396 0.137480846647006 0  0.4047272979990177 0.1622044446593698 0  0.255697023253929 0.196017333237267 0  0.2550754592348592 0.2033899228739528 0  0.4271069120406634 0.1509297689980715 0  0.3693595361106223 0.1695301773415378 0  0.3376639441866032 0.1809104126599741 0  0.2806850856177835 0.1939710706549749 0  0.2904204991016287 0.1925717269674965 0  0.4180850675582418 0.1557346086998444 0  0.3466219344108475 0.1779167852019199 0  0.3785713773067389 0.1654831277397421 0  0.3149195077866308 0.187556044986307 0  0.5380192404506369 0.08608757145326455 0  0.5342303764113986 0.0793503770679162 0  0.3163689131362167 0.1951329069057538 0  0.2706728710942117 0.1949828539154481 0  0.5599913960231011 0.07373798831181944 0  0.423156263862374 0.1435743570840384 0  0.4141558062629913 0.1486433105997554 0  0.3399619958571092 0.1893454095031674 0  0.2813396641043932 0.2026732617224588 0  0.2919373690866711 0.2011222104676871 0  0.3725966464974129 0.1771771386078722 0  0.3493463606431827 0.1866080725629667 0  0.3819181357219618 0.1739690511489911 0  0.2645567753866096 0.1956939412848503 0  0.565630585555169 0.0694857396824413 0  0.5079919682934542 0.0948691642272822 0  0.4952291655326574 0.1026258923607718 0  0.307369327620898 0.19771667905375 0  0.4824312193219085 0.1103363060776078 0  0.5464389521759893 0.08159495291116618 0  0.4695933954440149 0.1179550843711286 0  0.456740662258427 0.125407955752464
[...]
<PointData  Vectors="d"> 
<DataArray  type="Float64"  Name="d"  NumberOfComponents="3" format="ascii">-3.6865910228474498e-02 -1.3546678377992308e-01 0.0000000000000000e+00  -2.6409992482647155e-02 -1.3839444998782210e-01 0.0000000000000000e+00  0.0000000000000000e+00 0.0000000000000000e+00 0.0000000000000000e+00  0.0000000000000000e+00 0.0000000000000000e+00 0.0000000000000000e+00  -3.1637770222350245e-02 -1.3693057767118752e-01 0.0000000000000000e+00  0.0000000000000000e+00 0.0000000000000000e+00 0.0000000000000000e+00  0.0000000000000000e+00 0.0000000000000000e+00 0.0000000000000000e+00  0.0000000000000000e+00 0.0000000000000000e+00 0.0000000000000000e+00  0.0000000000000000e+00 0.0000000000000000e+00 0.0000000000000000e+00  1.7855107718592130e-04 -1.5744390898889899e-04 0.0000000000000000e+00  3.7474233618641081e-04 -3.3361998743366940e-04 0.0000000000000000e+00  5.6729964384365705e-04 -5.6008581065346036e-04 0.0000000000000000e+00  7.4286286028592903e-04 -9.3673791181566159e-04 0.0000000000000000e+00  9.0274526871848382e-04 -1.3958495013874869e-03 0.0000000000000000e+00  1.0602240768418866e-03 -1.9707554450058423e-03 0.0000000000000000e+00  1.1920745557754491e-03 -2.6061409132805222e-03 0.0000000000000000e+00  1.2944456426566735e-03 -3.3454984903049196e-03 0.0000000000000000e+00  1.3865739597226879e-03 -4.1682346901843661e-03 0.0000000000000000e+00  1.4544967510454847e-03 -5.0728177767935066e-03 0.0000000000000000e+00  1.5119165508285690e-03 -6.0888061542368060e-03 0.0000000000000000e+00  1.5644181678637927e-03 -7.1234537490475740e-03 0.0000000000000000e+00  1.5678432016692472e-03 -8.2777766979017404e-03 0.0000000000000000e+00  1.5818219474432163e-03 -9.5017092599451805e-03 0.0000000000000000e+00  1.5478825390450150e-03 -1.0780961370649015e-02 0.0000000000000000e+00  1.4982222866586992e-03 -1.2148685631531993e-02 0.0000000000000000e+00  1.4261859530216294e-03 -1.3565375150563304e-02 0.0000000000000000e+00  1.3243477789796120e-03 -1.5065149590040256e-02 0.0000000000000000e+00  1.1989306275076031e-03 -1.6597989318788819e-02 0.0000000000000000e+00  1.0501579916659682e-03 -1.8201696527503232e-02 0.0000000000000000e+00  8.7681265873880497e-04 -1.9853271630440993e-02 0.0000000000000000e+00  6.7763967340128044e-04 -2.1551662502985791e-02 0.0000000000000000e+00  4.5991542117421636e-04 -2.3330977005616881e-02 0.0000000000000000e+00  2.3806253107020491e-04 -2.5122353925660236e-02 0.0000000000000000e+00  -2.1530543725739616e-05 -2.6982246384865970e-02 0.0000000000000000e+00  -3.0047415902426089e-04 -2.8870353214358678e-02 0.0000000000000000e+00  -6.0062290350231711e-04 -3.0811294399990617e-02 0.0000000000000000e+00  -9.2075869340103118e-04 -3.2789585457697092e-02 0.0000000000000000e+00  -1.2629020980098541e-03 -3.4802978002006560e-02 0.0000000000000000e+00  -1.6203850909563245e-03 -3.6877526352933468e-02 0.0000000000000000e+00  -1.9807395114479890e-03 -3.8957619414418020e-02 0.0000000000000000e+00  -2.3763742515800546e-03 -4.1087368127440543e-02 0.0000000000000000e+00  -2.7850983103396071e-03 -4.3259589392106113e-02 0.0000000000000000e+00  -3.1985848036225179e-03 -4.5441625798105817e-02 0.0000000000000000e+00  -3.6424368604717353e-03 -4.7668626484700660e-02 0.0000000000000000e+00  -4.0875163100649835e-03 -4.9921464586237863e-02 0.0000000000000000e+00  -4.5580637585668762e-03 -5.2200549988531179e-02 0.0000000000000000e+00  -5.0347733227362901e-03 -5.4514889276132343e-02 0.0000000000000000e+00  -5.5313181369524124e-03 -5.6846492674644776e-02 0.0000000000000000e+00  -6.0438846876546262e-03 -5.9207929216615683e-02 0.0000000000000000e+00  -6.5648025935959742e-03 -6.1592101110852990e-02 0.0000000000000000e+00  -7.0978331613977680e-03 -6.4001980824055282e-02 0.0000000000000000e+00  -7.6487611683613323e-03 -6.6433165949010997e-02 0.0000000000000000e+00  -8.2069051948069002e-03 -6.8885157158125501e-02 0.0000000000000000e+00  -8.7769133836321043e-03 -7.1360108338790681e-02 0.0000000000000000e+00  -9.3627169624648111e-03 -7.3853425221602653e-02 0.0000000000000000e+00  -9.9562168582087752e-03 -7.6363656693892459e-02 0.0000000000000000e+00  -1.0560432985383070e-02 -7.8892682168458170e-02 0.0000000000000000e+00  -1.1177533591678019e-02 -8.1434781653930907e-02 0.0000000000000000e+00  -1.1801765182661406e-02 -8.3989156944822438e-02 0.0000000000000000e+00  -1.2435559391883661e-02 -8.6556868729541034e-02 0.0000000000000000e+00  -1.3080131301072911e-02 -8.9133069401715947e-02 0.0000000000000000e+00  -1.3731359752466992e-02 -9.1716548176149201e-02 0.0000000000000000e+00  -1.4391353421591018e-02 -9.4307995120322688e-02 0.0000000000000000e+00  -1.5060037177172910e-02 -9.6903180973851602e-02 0.0000000000000000e+00  -1.5734691582026707e-02 -9.9501769477891550e-02 0.0000000000000000e+00  -1.6417129486259927e-02 -1.0210338906541477e-01 0.0000000000000000e+00  -1.7106838402597975e-02 -1.0470535941230719e-01 0.0000000000000000e+00  -1.7801994683845211e-02 -1.0730735025647363e-01 0.0000000000000000e+00  -1.8502999857619263e-02 -1.0990772102405398e-01 0.0000000000000000e+00  -1.9209941319329800e-02 -1.1250588574278728e-01 0.0000000000000000e+00  -1.9918931490648877e-02 -1.1510372498446585e-01 0.0000000000000000e+00  -2.0633107594301293e-02 -1.1769856250236319e-01 0.0000000000000000e+00  -2.1350884876432597e-02 -1.2029191391720824e-01 0.0000000000000000e+00  -2.2070118525079299e-02 -1.2288245782672938e-01 0.0000000000000000e+00  -2.2792237470746601e-02 -1.2547013419221598e-01 0.0000000000000000e+00  -2.3514812652340494e-02 -1.2805729300534133e-01 0.0000000000000000e+00  -2.4238142793634322e-02 -1.3064219553087036e-01 0.0000000000000000e+00  -2.4962380549920709e-02 -1.3322625885884976e-01 0.0000000000000000e+00  -2.5686214007961800e-02 -1.3581048716140212e-01 0.0000000000000000e+00  -3.6142734939013495e-02 -1.3288206487106896e-01 0.0000000000000000e+00  -3.5420062758792482e-02 -1.3029798224081723e-01 0.0000000000000000e+00  -3.4697434751481744e-02 -1.2771434801252374e-01 0.0000000000000000e+00  -3.3975695439146608e-02 -1.2513135574787343e-01 0.0000000000000000e+00  -3.3255342979388834e-02 -1.2254820818764019e-01 0.0000000000000000e+00  -3.2535928413562523e-02 -1.1996577293640034e-01 0.0000000000000000e+00  -3.1819083124993298e-02 -1.1738289744726406e-01 0.0000000000000000e+00  -3.1104727758458038e-02 -1.1480027156565110e-01 0.0000000000000000e+00  -3.0392277757814976e-02 -1.1221688411210147e-01 0.0000000000000000e+00  -2.9683380458573581e-02 -1.0963304321972955e-01 0.0000000000000000e+00  -2.8976451739345956e-02 -1.0704940686900279e-01 0.0000000000000000e+00  -2.8272893777825464e-02 -1.0446478617767706e-01 0.0000000000000000e+00  -2.7573217306095667e-02 -1.0188090782322441e-01 0.0000000000000000e+00  -2.6874063115212274e-02 -9.9298397087119628e-02 0.0000000000000000e+00  -2.6179129389574542e-02 -9.6717141316894253e-02 0.0000000000000000e+00  -2.5487300883297068e-02 -9.4141031887049240e-02 0.0000000000000000e+00  -2.4795300547879724e-02 -9.1567060270479755e-02 0.0000000000000000e+00  -2.4108828697006906e-02 -8.8999158543458398e-02 0.0000000000000000e+00  -2.3424359218620922e-02 -8.6442369180694492e-02 0.0000000000000000e+00  -2.2738810398446989e-02 -8.3889000376969253e-02 0.0000000000000000e+00  -2.2060977902445770e-02 -8.1348698733870531e-02 0.0000000000000000e+00  -2.1385028083080300e-02 -7.8826698732959208e-02 0.0000000000000000e+00  -2.0707454667879613e-02 -7.6309787861243331e-02 0.0000000000000000e+00  -2.0041157064762925e-02 -7.3813381309890264e-02 0.0000000000000000e+00  -1.9377910918707796e-02 -7.1342614532018747e-02 0.0000000000000000e+00  -1.8714335474748413e-02 -6.8881223781790249e-02 0.0000000000000000e+00  -1.8061881831883290e-02 -6.6443358762306684e-02 0.0000000000000000e+00  -1.7416333932186175e-02 -6.4037941370927970e-02 0.0000000000000000e+00  -1.6771733641793914e-02 -6.1638554284856054e-02 0.0000000000000000e+00  -1.6147747807802794e-02 -5.9270099787138993e-02 0.0000000000000000e+00  -1.5528359730573505e-02 -5.6940772462257143e-02 0.0000000000000000e+00  -1.4908956701612925e-02 -5.4620628716915871e-02 0.0000000000000000e+00  -1.4308163851239992e-02 -5.2337397648324457e-02 0.0000000000000000e+00  -1.3717241665952644e-02 -5.0072188102451246e-02 0.0000000000000000e+00  -1.3136428237630011e-02 -4.7838081187352353e-02 0.0000000000000000e+00  -1.2571795663663130e-02 -4.5640560137772845e-02 0.0000000000000000e+00  -1.2005696505985279e-02 -4.3465499228404016e-02 0.0000000000000000e+00  -1.1457240460376201e-02 -4.1326475687482829e-02 0.0000000000000000e+00  -1.0912940434711763e-02 -3.9220244702718079e-02 0.0000000000000000e+00  -1.0377437586163923e-02 -3.7151835564663928e-02 0.0000000000000000e+00  -9.8566030273651382e-03 -3.5122212928774592e-02 0.0000000000000000e+00  -9.3530092427740168e-03 -3.3120229493558730e-02 0.0000000000000000e+00  -8.8641538947307318e-03 -3.1162772755120891e-02 0.0000000000000000e+00  -8.3659428302468846e-03 -2.9243194824858636e-02 0.0000000000000000e+00  -7.8997632893719298e-03 -2.7369541538001793e-02 0.0000000000000000e+00  -7.4316975902707005e-03 -2.5551327823423470e-02 0.0000000000000000e+00  -6.9901117347513355e-03 -2.3765989594743530e-02 0.0000000000000000e+00  -6.5600910341734962e-03 -2.2041409857985618e-02 0.0000000000000000e+00  -6.1500576760952722e-03 -2.0350568076162125e-02 0.0000000000000000e+00  -5.7589485041258468e-03 -1.8717204808876477e-02 0.0000000000000000e+00  -5.3545177565429685e-03 -1.7130040116585289e-02 0.0000000000000000e+00  -4.9886875094304148e-03 -1.5598467689793196e-02 0.0000000000000000e+00  -4.6148010747386770e-03 -1.4137662472852282e-02 0.0000000000000000e+00  -4.2802551106213647e-03 -1.2721575340155736e-02 0.0000000000000000e+00  -3.9554583726379034e-03 -1.1394280121786197e-02 0.0000000000000000e+00  -3.6268276677030417e-03 -1.0087374288958419e-02 0.0000000000000000e+00  -3.3293063461172713e-03 -8.8743801908267392e-03 0.0000000000000000e+00  -3.0104012843653952e-03 -7.7298944465682713e-03 0.0000000000000000e+00  -2.7341583663544901e-03 -6.6461424998194019e-03 0.0000000000000000e+00  -2.4646501235406613e-03 -5.6593252783724256e-03 0.0000000000000000e+00  -2.2116379810516213e-03 -4.7244747035920485e-03 0.0000000000000000e+00  -1.9742439956086811e-03 -3.8824396379810600e-03 0.0000000000000000e+00  -1.7147079219533574e-03 -3.1056953686200554e-03 0.0000000000000000e+00  -1.4995915918763366e-03 -2.4124842888351636e-03 0.0000000000000000e+00  -1.2568731792791167e-03 -1.8070085678580493e-03 0.0000000000000000e+00  -1.0484954727984709e-03 -1.3030392908472425e-03 0.0000000000000000e+00  -8.1601902638472326e-04 -8.8792516962967556e-04 0.0000000000000000e+00  -6.0692495430787155e-04 -5.3745191876860654e-04 0.0000000000000000e+00  -4.0352870799327599e-04 -2.9289703378855987e-04 0.0000000000000000e+00  -2.0026517500282921e-04 -1.6860472306007594e-04 0.0000000000000000e+00  -3.4251774601483612e-02 -1.3619867108870107e-01 0.0000000000000000e+00  -2.9023730520565449e-02 -1.3766233519220725e-01 0.0000000000000000e+00  1.5504387080962399e-05 -1.6119798472263462e-04 0.0000000000000000e+00  -2.3387748721248037e-02 -1.0718373673353679e-01 0.0000000000000000e+00  -2.7013663638794320e-02 -1.2032551659709174e-01 0.0000000000000000e+00  -3.1067274414981860e-06 -1.6195896384192695e-03 0.0000000000000000e+00  -1.9352464749325150e-02 -9.1815899578730306e-02 0.0000000000000000e+00  -2.1400830287775577e-02 -9.9581084143140944e-02 0.0000000000000000e+00  -3.9888205636131485e-04 -4.0714574804399210e-03 0.0000000000000000e+00  -2.9357244612857377e-02 -1.2786314052692191e-01 0.0000000000000000e+00  -6.1887593922448547e-04 -7.2489264169041017e-03 0.0000000000000000e+00  -1.3435033980957005e-03 -1.4255512166157024e-02 0.0000000000000000e+00  -1.7349785608303577e-02 -8.4104369744904817e-02 0.0000000000000000e+00  -2.5556078254214821e-03 -2.0049484899027633e-02 0.0000000000000000e+00  -1.5400439967908472e-02 -7.6493224559949682e-02 0.0000000000000000e+00  -3.5667084924912119e-03 -2.5506892983024394e-02 0.0000000000000000e+00  -5.0728572278411687e-03 -3.2916735813389955e-02 0.0000000000000000e+00  -1.3649046344254831e-02 -6.8801160625116708e-02 0.0000000000000000e+00  -1.1628066991723940e-02 -6.1594542064694884e-02 0.0000000000000000e+00  -6.3155515447691022e-03 -3.8904875239073586e-02 0.0000000000000000e+00  -7.8317058125537634e-03 -4.5507140142199975e-02 0.0000000000000000e+00  -9.8651580993861891e-03 -5.4242737411854640e-02 0.0000000000000000e+00  -9.0653371619639196e-04 -9.5934001451892532e-03 0.0000000000000000e+00  -2.5578136766236676e-02 -1.1518165007981165e-01 0.0000000000000000e+00  -8.7772937992121255e-03 -4.9327134509839707e-02 0.0000000000000000e+00  -2.0277318834795734e-03 -1.7244371965869604e-02 0.0000000000000000e+00  -4.3184203943726959e-03 -2.9552722223138109e-02 0.0000000000000000e+00  -1.7024498160503855e-04 -2.7654830014752049e-03 0.0000000000000000e+00  -3.1256281996405698e-02 -1.3203353085907410e-01 0.0000000000000000e+00  8.5944153866180094e-05 -7.1864950752081771e-04 0.0000000000000000e+00  -1.1416535647128698e-02 -6.5473223423925433e-02 0.0000000000000000e+00  -1.5123679901172103e-02 -8.0403113306326351e-02 0.0000000000000000e+00  -1.7083283392070783e-02 -8.8076935033149298e-02 0.0000000000000000e+00  -6.6447879395011124e-03 -3.5749402914230115e-02 0.0000000000000000e+00  -1.3229444511642588e-02 -7.2853214185484405e-02 0.0000000000000000e+00  -1.9098194749622762e-02 -9.5827030884298225e-02 0.0000000000000000e+00  -9.7018040773802945e-03 -5.8294945806163137e-02 0.0000000000000000e+00  -2.1161738595699479e-02 -1.0361082939700507e-01 0.0000000000000000e+00  -8.0738639258119676e-03 -4.2033423057957618e-02 0.0000000000000000e+00  -3.8146077954239643e-03 -2.2471332889430439e-02 0.0000000000000000e+00  -8.9294131676494583e-04 -5.7195676609506276e-03 0.0000000000000000e+00  -2.9200999632556662e-02 -1.2368287773942284e-01 0.0000000000000000e+00  -2.5934615973047186e-02 -1.1060691003142696e-01 0.0000000000000000e+00  -4.3013317146675840e-04 -1.1815460417433804e-02 0.0000000000000000e+00  -2.2128654623030368e-02 -1.1049861659094516e-01 0.0000000000000000e+00  -2.3573380610629057e-03 -1.2132847636711129e-02 0.0000000000000000e+00  -2.4674921186999470e-02 -1.0389450836023999e-01 0.0000000000000000e+00  -2.2593009938662485e-02 -9.6127894966039976e-02 0.0000000000000000e+00  -2.0546350266302488e-02 -8.8392150668515190e-02 0.0000000000000000e+00  -2.6315712695100281e-02 -1.2572242303476974e-01 0.0000000000000000e+00  3.4969701031064052e-04 -5.4146931421218307e-03 0.0000000000000000e+00  -1.6577113734083378e-02 -7.3187608303628068e-02 0.0000000000000000e+00  -1.8538074829478095e-02 -8.0729064456242172e-02 0.0000000000000000e+00  -3.9398894115550672e-03 -3.5381191549525653e-02 0.0000000000000000e+00  -1.5357312430119674e-03 -2.2095580240949621e-02 0.0000000000000000e+00  -1.4138693327929346e-02 -6.3672800695652579e-02 0.0000000000000000e+00  -1.2860310690940862e-02 -5.8644335017394696e-02 0.0000000000000000e+00  -5.2175257896042732e-03 -4.1670373676229285e-02 0.0000000000000000e+00  -8.9276726268129584e-05 -6.8503788462488134e-05 0.0000000000000000e+00  6.0723203919492506e-05 -5.2720125158653593e-05 0.0000000000000000e+00  -7.6962356058054892e-03 -5.2843988766083892e-02 0.0000000000000000e+00  -5.2766654977876920e-03 -2.6696064894317466e-02 0.0000000000000000e+00  -2.9618923998273377e-03 -1.5136379534014919e-02 0.0000000000000000e+00  -6.1508250119981004e-04 -2.0757215390752120e-03 0.0000000000000000e+00  -8.4813964236053188e-04 -3.5099058974317160e-03 0.0000000000000000e+00  -6.5854660237473876e-03 -4.8218599106110004e-02 0.0000000000000000e+00  -3.5402413220655452e-03 -1.8130006992267862e-02 0.0000000000000000e+00  -6.1974383655305394e-03 -3.0563664454493759e-02 0.0000000000000000e+00  -1.7128607517251128e-03 -8.6034135770629711e-03 0.0000000000000000e+00  -2.4135760654704283e-02 -1.1769407780663457e-01 0.0000000000000000e+00  -2.8211011290578306e-02 -1.1672581529322153e-01 0.0000000000000000e+00  1.2940955290393721e-04 -8.7350488367153676e-03 0.0000000000000000e+00  -4.1584232655044769e-04 -9.8679041713566713e-04 0.0000000000000000e+00  -2.7310041617259299e-02 -1.3098479979126287e-01 0.0000000000000000e+00  -1.1511692781896883e-02 -5.1890788871212977e-02 0.0000000000000000e+00  -1.0173844144807353e-02 -4.7232387494150790e-02 0.0000000000000000e+00  -2.9395522624311960e-04 -1.5448640525924935e-02 0.0000000000000000e+00  4.7117142829988356e-04 -2.1009800588068428e-03 0.0000000000000000e+00  5.2966577279877627e-04 -3.6587412394083608e-03 0.0000000000000000e+00  -2.1747461130802587e-03 -2.7357715436983180e-02 0.0000000000000000e+00  -5.7528824670388353e-04 -1.8567268755663838e-02 0.0000000000000000e+00  -2.6101531072679333e-03 -3.1206290169644928e-02 0.0000000000000000e+00  -2.5771115889570534e-04 -5.1503301378717260e-04 0.0000000000000000e+00  -2.8694178811120376e-02 -1.3455580267647690e-01 0.0000000000000000e+00  -2.4105292752160262e-02 -1.0077534567780495e-01 0.0000000000000000e+00  -2.2036678396115388e-02 -9.3018617544313620e-02 0.0000000000000000e+00  3.7700206063221949e-04 -6.6301243335050589e-03 0.0000000000000000e+00  -2.0003207490017987e-02 -8.5308203827478626e-02 0.0000000000000000e+00  -2.5221351397445874e-02 -1.2275185047610997e-01 0.0000000000000000e+00  -1.8009614251059101e-02 -7.7689425533954526e-02 0.0000000000000000e+00  -1.6074535271199345e-02 -7.0232291138525027e-02 0.0000000000000000e+00  -1.7102238648406683e-03 -2.4208771135217667e-02 0.0000000000000000e+00  -1.5095103975741944e-02 -6.6444028365609240e-02 0.0000000000000000e+00  -4.2330974803039215e-03 -3.7854994125923115e-02 0.0000000000000000e+00  -1.2411303517251874e-02 -5.5834976288511327e-02 0.0000000000000000e+00  -5.5488301467478034e-03 -4.4268685528697518e-02 0.0000000000000000e+00  -3.1916290206792118e-02 -1.2924715856306485e-01 0.0000000000000000e+00  -2.2640606990583075e-02 -1.1359678011359566e-01 0.0000000000000000e+00  -2.2301245711670386e-03 -1.0560577748560791e-02 0.0000000000000000e+00  3.9077438059765602e-04 -1.0981556820433508e-03 0.0000000000000000e+00  2.1218078567848846e-04 -4.1668165144173456e-04 0.0000000000000000e+00  -9.6936935678946234e-03 -6.3424501721919366e-02 0.0000000000000000e+00  -9.5308667725040232e-03 -4.3844300509203980e-02 0.0000000000000000e+00  -1.1444361704633877e-02 -7.0756308135750068e-02 0.0000000000000000e+00  -1.7242593089992993e-02 -9.3633793054681877e-02 0.0000000000000000e+00  -1.3335567284929998e-02 -7.8247702442218264e-02 0.0000000000000000e+00  -1.5256802418326280e-02 -8.5895690617972267e-02 0.0000000000000000e+00  -7.7880095554234896e-03 -3.7678565585933008e-02 0.0000000000000000e+00  -8.1365894125590386e-03 -5.6334906240582856e-02 0.0000000000000000e+00  -4.9409896902225230e-03 -2.3999417947839198e-02 0.0000000000000000e+00  -7.1824118055423564e-03 -3.3602172480037072e-02 0.0000000000000000e+00  -2.0578194232866682e-02 -1.0646076870527814e-01 0.0000000000000000e+00  -4.3075477049542279e-03 -2.0682227661628954e-02 0.0000000000000000e+00  -1.9623855962847232e-02 -1.0122249369606656e-01 0.0000000000000000e+00  -1.5072626815399994e-03 -6.6353289238723009e-03 0.0000000000000000e+00  -1.2110331373948889e-03 -4.7657471640623027e-03 0.0000000000000000e+00  -3.0995111900453690e-02 -1.2565467187824317e-01 0.0000000000000000e+00  -2.9762732452928185e-02 -1.2083442454153212e-01 0.0000000000000000e+00  -1.7098713973528447e-02 -9.0955189779652654e-02 0.0000000000000000e+00  -1.5126520599666248e-02 -8.3244460631600972e-02 0.0000000000000000e+00  -1.1241761021732468e-02 -6.8133774009257311e-02 0.0000000000000000e+00  -1.8982802386588313e-02 -9.8680169834634957e-02 0.0000000000000000e+00  -1.3219511887702694e-02 -7.5640241456670157e-02 0.0000000000000000e+00  -9.4747125590571458e-03 -6.0890640340395312e-02 0.0000000000000000e+00  -8.2377279205187361e-03 -3.9723190559607588e-02 0.0000000000000000e+00  1.8430948520473179e-04 -1.0617010632296513e-02 0.0000000000000000e+00  -2.7568237899555561e-02 -1.1280829739534472e-01 0.0000000000000000e+00  -2.6147009834618602e-02 -1.0791183127267617e-01 0.0000000000000000e+00  -