<?xml version="1.0"?>
<VTKFile type="UnstructuredGrid"  version="0.1"  >
<UnstructuredGrid>
<Piece  NumberOfPoints="439" NumberOfCells="725">
<Points>
<DataArray  type="Float64"  NumberOfComponents="3"  format="ascii">0.5997794491747752 0.1839106926227728 0  0.6001035867402552 0.204050844529006 0  0.2489897949 0.21 0  0.2489897949 0.19 0  0.5999422937358654 0.193980659869727 0  0.2496355385699469 0.2060260530378829 0  0.249959460510575 0.2020130349814059 0  0.2499594605105767 0.1979869650186357 0  0.24963553856995 0.1939739469621422 0  0.2539338859811278 0.2100049580435248 0  0.2588820986438987 0.2100050238048342 0  0.2638317385143489 0.2100025672664497 0  0.2687828917495713 0.2099907012462931 0  0.2737356115703946 0.2099724341715024 0  0.2786913404651044 0.2099450183211165 0  0.2836468662283058 0.2099112455347611 0  0.2886026748012822 0.2098663884278417 0  0.2935602012392497 0.2098117560904108 0  0.2985175430789017 0.2097465182623302 0  0.3034776706149021 0.2096664199797803 0  0.3084377799431899 0.2095842241687842 0  0.3133958071508791 0.2094849139798314 0  0.3183567803937618 0.2093776921983297 0  0.3233132344088575 0.2092616604434675 0  0.3282695620725342 0.2091353732516837 0  0.3332238930811207 0.2090032661609864 0  0.3381767139692561 0.2088620390003945 0  0.3431267600198855 0.2087186327684281 0  0.3480757042135388 0.2085699906865431 0  0.3530226863801971 0.208418422334713 0  0.3579674784040162 0.2082650774006645 0  0.362909110875312 0.2081106790590781 0  0.3678488338504009 0.207955735541395 0  0.3727847295057258 0.2077996515681209 0  0.3777185270193622 0.2076451004775283 0  0.3826493156849828 0.2074917552929927 0  0.3875786945772864 0.2073405178706161 0  0.3925074302276697 0.2071926541752936 0  0.3974365412407793 0.2070506079176267 0  0.4023646216682869 0.2069099568112049 0  0.407296173406381 0.2067744349079424 0  0.412227993588565 0.206643621377285 0  0.4171594227578844 0.2065131553773888 0  0.4220926274574069 0.206387194094146 0  0.4270231254077564 0.206261409871561 0  0.4319537847603092 0.2061402888656263 0  0.4368800917199779 0.2060217168713431 0  0.4418063507026074 0.2059087158749689 0  0.4467311303418965 0.2058029368181521 0  0.4516532911046205 0.2057043420829269 0  0.456573781651924 0.2056144423366368 0  0.4614956594952454 0.2055371043331075 0  0.4664167873421537 0.2054695466856652 0  0.4713397333503188 0.2054127164225044 0  0.4762645543851513 0.2053686557236952 0  0.4811921556497131 0.2053317704181743 0  0.4861239547291772 0.2053020275248646 0  0.4910561334790332 0.2052773725564337 0  0.495991482280186 0.2052539812357898 0  0.5009304136539335 0.2052307727464396 0  0.5058678267907674 0.2052043120211136 0  0.5108065918427143 0.2051737157061551 0  0.5157465472410759 0.2051384868615451 0  0.5206850272019615 0.2050967183357801 0  0.5256243105762225 0.2050498573862827 0  0.5305647308357082 0.2049979186677811 0  0.5355065068543768 0.2049413694882233 0  0.5404517564443269 0.2048806757578889 0  0.5454012007640494 0.2048182618377158 0  0.5503536982407713 0.2047552457628145 0  0.5553099787728631 0.2046885411697357 0  0.5602762963294143 0.2046238355402726 0  0.5652460712715123 0.2045562431153766 0  0.5702217250325284 0.2044865104915182 0  0.5752007346206609 0.2044179262056872 0  0.5801816794237769 0.2043456081220468 0  0.5851640927480259 0.2042741957719657 0  0.5901457039173861 0.2042008708242821 0  0.5951254184734495 0.2041267777206741 0  0.5947974549647637 0.1839925515392948 0  0.5898106549679456 0.1840749501316132 0  0.5848216910166655 0.1841568752596074 0  0.5798333402822076 0.1842444699575882 0  0.5748465517854021 0.1843357949114193 0  0.5698663394529461 0.1844283791041989 0  0.5648940033341406 0.1845240613625427 0  0.5599285252505706 0.1846218479854942 0  0.5549752782861167 0.1847143971259451 0  0.5500310274049512 0.1848047700264274 0  0.5450966178057142 0.1848872846183132 0  0.5401708170095859 0.1849642764764364 0  0.5352491791866122 0.1850316844626369 0  0.5303329964693615 0.1850895706236924 0  0.5254203449044126 0.1851395846918278 0  0.5205067932679251 0.1851780028084768 0  0.5155939395884553 0.1852091055450015 0  0.5106758294467774 0.1852340264932021 0  0.5057531478374855 0.1852515729074626 0  0.5008275616734409 0.1852672378547983 0  0.4958926806070058 0.1852827627945145 0  0.4909530654897968 0.1852988501235997 0  0.4860100053210576 0.1853189919365394 0  0.4810599423339226 0.1853457952285655 0  0.4761072388765016 0.1853803592936132 0  0.4711533058278671 0.1854226686998939 0  0.4661960771006194 0.1854749979622391 0  0.4612391615206244 0.1855395229342421 0  0.4562832244190497 0.1856096109802336 0  0.4513295317042766 0.1856917977399639 0  0.4463740443610782 0.1857841754111485 0  0.4414206832073531 0.1858798533204223 0  0.4364682025896741 0.1859856904465963 0  0.4315177244515651 0.1860953898796081 0  0.4265667841664831 0.1862113382801503 0  0.4216170014477477 0.1863339518940789 0  0.4166664772176626 0.1864595689876877 0  0.4117181167211099 0.186590631499175 0  0.4067705716412005 0.1867262200542394 0  0.4018242270505554 0.1868663659542703 0  0.3968801780860545 0.187010392800439 0  0.3919388501177392 0.1871566406489673 0  0.3869991967163205 0.1873053891041011 0  0.3820583110805954 0.1874561112672739 0  0.3771193215463891 0.1876074730026259 0  0.372178880344131 0.1877611334525884 0  0.3672381848328317 0.1879151048380478 0  0.3622963855358677 0.1880703728921639 0  0.3573550026848146 0.1882266476908656 0  0.3524145508461332 0.1883831093722701 0  0.3474765832319843 0.1885396160175578 0  0.3425408788277746 0.1886927624352092 0  0.3376097491591974 0.1888419008058962 0  0.3326792398108978 0.1889845319503221 0  0.3277518235393003 0.1891175207038046 0  0.3228263246304985 0.1892475730768024 0  0.3179017241902909 0.1893657009499827 0  0.3129827762232957 0.1894757183367695 0  0.3080617082220313 0.189575929743149 0  0.3031437449269866 0.1896622436527134 0  0.2982255250111958 0.1897401367923891 0  0.293307197799859 0.1898041873024675 0  0.2883918677765355 0.1898594235658792 0  0.2834713570629166 0.1899035336267118 0  0.2785532941151639 0.1899374453456637 0  0.273630941031505 0.1899616358286032 0  0.2687088502127185 0.1899777199730182 0  0.2637829154983065 0.189988503580612 0  0.2588543795401616 0.1899930440324773 0  0.2539234428137296 0.18999335186432 0  0.5998615947833137 0.1889461665418977 0  0.6000236712725986 0.1990158455236207 0  0.2589666189466562 0.2005594883193404 0  0.5427856114361973 0.1948614905237345 0  0.5679399365092697 0.1944381026412496 0  0.2774258244940587 0.2007552661183824 0  0.51357574509266 0.1950854178128618 0  0.5283544582454397 0.1949528195145713 0  0.2944514836386198 0.1991014574410067 0  0.5825782998987878 0.1937848126146448 0  0.3103447066903894 0.1995226885240441 0  0.3369376418029895 0.1997186197479443 0  0.4987820296588126 0.1951620878995976 0  0.3551904326403687 0.1983254619262567 0  0.4839667671955338 0.195227873811161 0  0.3706385100635253 0.1978516419326651 0  0.389753058535178 0.1972463053493985 0  0.4687701874570382 0.1949871422631977 0  0.453959645325873 0.1956534640107593 0  0.4041958741119842 0.1969233927080958 0  0.4193803395330798 0.1964193584677084 0  0.4385197905937711 0.1959451052696389 0  0.3201728378150757 0.199345616128738 0  0.5580594530143936 0.1946146585752015 0  0.4278883598501796 0.1960560120707577 0  0.3466805585201273 0.19874409157684 0  0.3812601362506575 0.1976571932749836 0  0.2860275739415931 0.1999380119160411 0  0.5909699538575213 0.192352085015141 0  0.2679769795611581 0.2016719589893714 0  0.4613975541484119 0.1977865631443448 0  0.4910239128891301 0.1975383409990275 0  0.5058300760047495 0.1974729812490332 0  0.3970919726567272 0.1947724110549091 0  0.4762087130047498 0.1976241487337622 0  0.5206203618420295 0.1973705634794998 0  0.4465916666761597 0.1980435307000142 0  0.5354114802965847 0.1972066356620847 0  0.4119108469603646 0.1943577567972319 0  0.3625356068390546 0.1958357798068433 0  0.303273945275407 0.1974279419734331 0  0.5749895822820884 0.1920995879052878 0  0.5500531039936605 0.1918884031432704 0  0.3281860002963004 0.202007838235332 0  0.5481118125783522 0.1986163650486322 0  0.3300537691537336 0.1952343761530564 0  0.5375191168580328 0.1910801333905547 0  0.5227479942372081 0.1912502197173151 0  0.5079767708451169 0.1913517053138112 0  0.5773040728101012 0.1982187906819198 0  0.3011852089793069 0.2035896300975951 0  0.478347382604848 0.1914884522365856 0  0.4931762003936705 0.1914121683422592 0  0.3950766330105817 0.200973196849399 0  0.360531922321578 0.2020425756451537 0  0.4591277425330934 0.191695606943394 0  0.4486730933431413 0.1918708673989431 0  0.4098800539205172 0.2005571823404197 0  0.2557780510381639 0.1960889867442811 0  0.2550129181526836 0.2034490875529696 0  0.4347043724935762 0.1998294989973883 0  0.374418509636252 0.1939342130949579 0  0.3404255685499228 0.1948221351929476 0  0.2812335446629724 0.1959793669830759 0  0.2911775411004069 0.1959258393179273 0  0.4245902020295506 0.2002551112167037 0  0.3499535405315377 0.1945271880760929 0  0.3845296751940185 0.1934415561066031 0  0.3164763791721553 0.195575432461584 0  0.5618867452099445 0.1983535053654554 0  0.5620425971104005 0.1906378772800782 0  0.3162505111248104 0.203296861343934 0  0.2710465097484553 0.1959522647455128 0  0.5872269743939615 0.1989286264252163 0  0.4343944392188169 0.1915076228806011 0  0.4240610763078554 0.1921644821393081 0  0.3403058488908566 0.2035896861977693 0  0.2808711657598292 0.2047128571431018 0  0.2914175502874823 0.2046255094509808 0  0.3748018468408702 0.202254972828039 0  0.34998633218407 0.2036768550723133 0  0.3845557548143176 0.2025939059942665 0  0.2647886134524993 0.1962059481701373 0  0.5942929323068039 0.1981383980821111 0  0.5317093476612358 0.1906775897151635 0  0.5169451185667505 0.190819926632337 0  0.3070062977002407 0.2039623293912464 0  0.5021658110329676 0.1908988974345518 0  0.5714581602482103 0.1987790829366836 0  0.4873531168123227 0.1909576691267723 0  0.4725608231393075 0.1910511421846467 0  0.3663669448202913 0.2023527
[...]
<PointData  Vectors="d"> 
<DataArray  type="Float64"  Name="d"  NumberOfComponents="3" format="ascii">-2.2055082522451626e-04 -6.0893073772272308e-03 0.0000000000000000e+00  1.0358674025522488e-04 -5.9491554709939698e-03 0.0000000000000000e+00  0.0000000000000000e+00 0.0000000000000000e+00 0.0000000000000000e+00  0.0000000000000000e+00 0.0000000000000000e+00 0.0000000000000000e+00  -5.7706264134565856e-05 -6.0193401302731445e-03 0.0000000000000000e+00  0.0000000000000000e+00 0.0000000000000000e+00 0.0000000000000000e+00  0.0000000000000000e+00 0.0000000000000000e+00 0.0000000000000000e+00  0.0000000000000000e+00 0.0000000000000000e+00 0.0000000000000000e+00  0.0000000000000000e+00 0.0000000000000000e+00 0.0000000000000000e+00  2.8537549865414767e-07 4.9580435248098039e-06 0.0000000000000000e+00  4.6923326445145270e-06 5.0238048342320418e-06 0.0000000000000000e+00  1.0526497456850156e-05 2.5672664498116114e-06 0.0000000000000000e+00  1.7874027041332002e-05 -9.2987537068882066e-06 0.0000000000000000e+00  2.6788142237566341e-05 -2.7565828497661719e-05 0.0000000000000000e+00  3.8711331329001516e-05 -5.4981678883493103e-05 0.0000000000000000e+00  5.0431388912109987e-05 -8.8754465238817033e-05 0.0000000000000000e+00  6.2434256265591950e-05 -1.3361157215836792e-04 0.0000000000000000e+00  7.6154988597545883e-05 -1.8824390958920151e-04 0.0000000000000000e+00  8.9691122630816179e-05 -2.5348173766989208e-04 0.0000000000000000e+00  1.0601295300242506e-04 -3.3358002021977495e-04 0.0000000000000000e+00  1.2231657567195783e-04 -4.1577583121565025e-04 0.0000000000000000e+00  1.3653807774259818e-04 -5.1508602016866860e-04 0.0000000000000000e+00  1.5370561500681069e-04 -6.2230780167024603e-04 0.0000000000000000e+00  1.6635392448424813e-04 -7.3833955653238384e-04 0.0000000000000000e+00  1.7887588254262364e-04 -8.6462674831635697e-04 0.0000000000000000e+00  1.8940118549992522e-04 -9.9673383901357875e-04 0.0000000000000000e+00  1.9841636802758568e-04 -1.1379609996055016e-03 0.0000000000000000e+00  2.0465671302780908e-04 -1.2813672315718223e-03 0.0000000000000000e+00  2.0979520106290277e-04 -1.4300093134568812e-03 0.0000000000000000e+00  2.1297166210259950e-04 -1.5815776652869909e-03 0.0000000000000000e+00  2.1395798030374752e-04 -1.7349225993355622e-03 0.0000000000000000e+00  2.1178474598108928e-04 -1.8893209409218254e-03 0.0000000000000000e+00  2.0770201545128225e-04 -2.0442644586049479e-03 0.0000000000000000e+00  1.9979196514702729e-04 -2.2003484318790282e-03 0.0000000000000000e+00  1.8978377317457507e-04 -2.3548995224717591e-03 0.0000000000000000e+00  1.7676673317069163e-04 -2.5082447070073192e-03 0.0000000000000000e+00  1.6233991985264314e-04 -2.6594821293838659e-03 0.0000000000000000e+00  1.4726986460647550e-04 -2.8073458247064201e-03 0.0000000000000000e+00  1.3257517210885138e-04 -2.9493920823732314e-03 0.0000000000000000e+00  1.1684989398851618e-04 -3.0900431887952570e-03 0.0000000000000000e+00  1.0459592647014832e-04 -3.2255650920575262e-03 0.0000000000000000e+00  9.2610403034070360e-05 -3.3563786227150806e-03 0.0000000000000000e+00  8.0233866732733303e-05 -3.4868446226111898e-03 0.0000000000000000e+00  6.9632860643350518e-05 -3.6128059058539623e-03 0.0000000000000000e+00  5.6325105364558258e-05 -3.7385901284388884e-03 0.0000000000000000e+00  4.3178752284256928e-05 -3.8597111343737067e-03 0.0000000000000000e+00  2.5680006300641532e-05 -3.9782831286569323e-03 0.0000000000000000e+00  8.1332832745823527e-06 -4.0912841250310104e-03 0.0000000000000000e+00  -1.0892783100275940e-05 -4.1970631818477409e-03 0.0000000000000000e+00  -3.2537726024011375e-05 -4.2956579170731011e-03 0.0000000000000000e+00  -5.5852884362416929e-05 -4.3855576633633295e-03 0.0000000000000000e+00  -7.7780746670623216e-05 -4.4628956668924758e-03 0.0000000000000000e+00  -1.0045860541294294e-04 -4.5304533143347642e-03 0.0000000000000000e+00  -1.2131830288100896e-04 -4.5872835774955559e-03 0.0000000000000000e+00  -1.4030297371554176e-04 -4.6313442763047559e-03 0.0000000000000000e+00  -1.5650741480023475e-04 -4.6682295818256765e-03 0.0000000000000000e+00  -1.6851404099903368e-04 -4.6979724751353997e-03 0.0000000000000000e+00  -1.8014099677328185e-04 -4.7226274435663313e-03 0.0000000000000000e+00  -1.8859790127508403e-04 -4.7460187642101061e-03 0.0000000000000000e+00  -1.9347223315580172e-04 -4.7692272535603498e-03 0.0000000000000000e+00  -1.9986480198169141e-04 -4.7956879788863564e-03 0.0000000000000000e+00  -2.0490545567331935e-04 -4.8262842938449086e-03 0.0000000000000000e+00  -2.0875576292823768e-04 -4.8615131384550014e-03 0.0000000000000000e+00  -2.1408150768001893e-04 -4.9032816642199401e-03 0.0000000000000000e+00  -2.1860383907813954e-04 -4.9501426137172067e-03 0.0000000000000000e+00  -2.2198928523109031e-04 -5.0020813322189106e-03 0.0000000000000000e+00  -2.2401897222177949e-04 -5.0586305117767622e-03 0.0000000000000000e+00  -2.2257508790988009e-04 -5.1193242421110792e-03 0.0000000000000000e+00  -2.1693647380373348e-04 -5.1817381622840837e-03 0.0000000000000000e+00  -2.0824470271945140e-04 -5.2447542371855680e-03 0.0000000000000000e+00  -1.9576987628256749e-04 -5.3114588302642035e-03 0.0000000000000000e+00  -1.7325802537425473e-04 -5.3761644597275487e-03 0.0000000000000000e+00  -1.4728878893614068e-04 -5.4437568846233218e-03 0.0000000000000000e+00  -1.1544073358300552e-04 -5.5134895084817922e-03 0.0000000000000000e+00  -8.0236851084998113e-05 -5.5820737943128836e-03 0.0000000000000000e+00  -4.3097753606728186e-05 -5.6543918779532170e-03 0.0000000000000000e+00  -4.4901350081017494e-06 -5.7258042280343806e-03 0.0000000000000000e+00  3.3315328705410800e-05 -5.7991291757179403e-03 0.0000000000000000e+00  6.9224179108796357e-05 -5.8732222793260328e-03 0.0000000000000000e+00  -2.5873932961964963e-04 -6.0074484607051549e-03 0.0000000000000000e+00  -3.0173362081235231e-04 -5.9250498683868285e-03 0.0000000000000000e+00  -3.4689186645385717e-04 -5.8431247403926568e-03 0.0000000000000000e+00  -3.9143689526512624e-04 -5.7555300424117399e-03 0.0000000000000000e+00  -4.3441968644946608e-04 -5.6642050885807220e-03 0.0000000000000000e+00  -4.7082631328542888e-04 -5.5716208958011765e-03 0.0000000000000000e+00  -4.9935672647773524e-04 -5.4759386374573357e-03 0.0000000000000000e+00  -5.2102910441815240e-04 -5.3781520145057445e-03 0.0000000000000000e+00  -5.3047036324115602e-04 -5.2856028740548991e-03 0.0000000000000000e+00  -5.3091553875239228e-04 -5.1952299735726426e-03 0.0000000000000000e+00  -5.2151943239021046e-04 -5.1127153816866860e-03 0.0000000000000000e+00  -5.0351452291877224e-04 -5.0357235235636063e-03 0.0000000000000000e+00  -4.8134664028384223e-04 -4.9683155373631783e-03 0.0000000000000000e+00  -4.5372365190135609e-04 -4.9104293763075945e-03 0.0000000000000000e+00  -4.2256951125009502e-04 -4.8604153081721483e-03 0.0000000000000000e+00  -3.9231544209924113e-04 -4.8219971915230801e-03 0.0000000000000000e+00  -3.6136341596659051e-04 -4.7908944549985566e-03 0.0000000000000000e+00  -3.3566785204517199e-04 -4.7659735067978395e-03 0.0000000000000000e+00  -3.1454375573189376e-04 -4.7484270925374251e-03 0.0000000000000000e+00  -2.9632421413958735e-04 -4.7327621452016595e-03 0.0000000000000000e+00  -2.8739957496619789e-04 -4.7172372054854724e-03 0.0000000000000000e+00  -2.8320898655623543e-04 -4.7011498764002709e-03 0.0000000000000000e+00  -2.8246344967670179e-04 -4.6810080634605246e-03 0.0000000000000000e+00  -2.8872073118193397e-04 -4.6542047714344522e-03 0.0000000000000000e+00  -2.9761848299493456e-04 -4.6196407063867880e-03 0.0000000000000000e+00  -3.0774582600127834e-04 -4.5773313001061296e-03 0.0000000000000000e+00  -3.2116884763598808e-04 -4.5250020377608615e-03 0.0000000000000000e+00  -3.3427872201057614e-04 -4.4604770657577552e-03 0.0000000000000000e+00  -3.4641011796054190e-04 -4.3903890197664183e-03 0.0000000000000000e+00  -3.5629712710427653e-04 -4.3082022600360757e-03 0.0000000000000000e+00  -3.6797876469347746e-04 -4.2158245888514745e-03 0.0000000000000000e+00  -3.7753421279353774e-04 -4.1201466795777577e-03 0.0000000000000000e+00  -3.8620912485562995e-04 -4.0143095534037020e-03 0.0000000000000000e+00  -3.9288155734803939e-04 -3.9046101203918412e-03 0.0000000000000000e+00  -4.0001613680334193e-04 -3.7886617198496044e-03 0.0000000000000000e+00  -4.0599314990058088e-04 -3.6660481059210877e-03 0.0000000000000000e+00  -4.1271167434304637e-04 -3.5404310123122776e-03 0.0000000000000000e+00  -4.1726646524940488e-04 -3.4093685008251230e-03 0.0000000000000000e+00  -4.2100583949911168e-04 -3.2737799457605585e-03 0.0000000000000000e+00  -4.2354472449230749e-04 -3.1336340457297474e-03 0.0000000000000000e+00  -4.2378798333567522e-04 -2.9896071995610335e-03 0.0000000000000000e+00  -4.2131024601553617e-04 -2.8433593510326111e-03 0.0000000000000000e+00  -4.1715794178771534e-04 -2.6946108958990026e-03 0.0000000000000000e+00  -4.1423787188678063e-04 -2.5438887327261061e-03 0.0000000000000000e+00  -4.0942170043678001e-04 -2.3925269973741393e-03 0.0000000000000000e+00  -4.0605719704620832e-04 -2.2388665474115722e-03 0.0000000000000000e+00  -4.0294700267680302e-04 -2.0848951619521915e-03 0.0000000000000000e+00  -4.0094059399378907e-04 -1.9296271078360215e-03 0.0000000000000000e+00  -3.9851773939628056e-04 -1.7733523091343387e-03 0.0000000000000000e+00  -3.9516387245581525e-04 -1.6168906277299719e-03 0.0000000000000000e+00  -3.8932578094667022e-04 -1.4603839824422775e-03 0.0000000000000000e+00  -3.8122447951730113e-04 -1.3072375647907389e-03 0.0000000000000000e+00  -3.6854844245615565e-04 -1.1580991941039075e-03 0.0000000000000000e+00  -3.5525208511742197e-04 -1.0154680496777628e-03 0.0000000000000000e+00  -3.3886265107447021e-04 -8.8247929619544700e-04 0.0000000000000000e+00  -3.2055585421865158e-04 -7.5242692319758147e-04 0.0000000000000000e+00  -3.0135058876802319e-04 -6.3429905001727673e-04 0.0000000000000000e+00  -2.7649285010553141e-04 -5.2428166323063613e-04 0.0000000000000000e+00  -2.5375514572685282e-04 -4.2407025685097275e-04 0.0000000000000000e+00  -2.2791273513299087e-04 -3.3775634728659785e-04 0.0000000000000000e+00  -2.0232694528548410e-04 -2.5986320761092996e-04 0.0000000000000000e+00  -1.7684845098400346e-04 -1.9581269753239875e-04 0.0000000000000000e+00  -1.4837276865200429e-04 -1.4057643412082995e-04 0.0000000000000000e+00  -1.2507777661307102e-04 -9.6466373288249914e-05 0.0000000000000000e+00  -9.9335018707771047e-05 -6.2554654336421687e-05 0.0000000000000000e+00  -7.7882396719437816e-05 -3.8364171396709929e-05 0.0000000000000000e+00  -5.6167509867584709e-05 -2.2280026981895230e-05 0.0000000000000000e+00  -3.8296518641158463e-05 -1.1496419388013527e-05 0.0000000000000000e+00  -2.3026771147531921e-05 -6.9559675226526267e-06 0.0000000000000000e+00  -1.0157791928413123e-05 -6.6481356800230890e-06 0.0000000000000000e+00  -1.3840521668623875e-04 -6.0538334580805993e-03 0.0000000000000000e+00  2.3671272598294572e-05 -5.9841544763521619e-03 0.0000000000000000e+00  -6.8075849931567205e-06 7.0989765000536917e-06 0.0000000000000000e+00  -3.6062294910997725e-04 -5.1385094762345374e-03 0.0000000000000000e+00  -2.9985296754634759e-04 -5.5323559396490982e-03 0.0000000000000000e+00  -2.5568217743692892e-05 -3.8925823810260064e-05 0.0000000000000000e+00  -2.7383828423693628e-04 -4.8169248362300680e-03 0.0000000000000000e+00  -3.2654224829825379e-04 -4.9495231345255139e-03 0.0000000000000000e+00  -5.9411567144856670e-05 -1.8973339953195974e-04 0.0000000000000000e+00  -1.9978323970466224e-04 -5.7581674856902066e-03 0.0000000000000000e+00  -6.8132966536148633e-05 -4.4777005685368507e-04 0.0000000000000000e+00  -6.2533738865543678e-05 -1.1108414954524237e-03 0.0000000000000000e+00  -2.3613660123344486e-04 -4.7402547494926305e-03 0.0000000000000000e+00  -9.1184930535707272e-05 -1.6745380738041719e-03 0.0000000000000000e+00  -2.1998194765878790e-04 -4.6744688379239596e-03 0.0000000000000000e+00  -9.8861327029880621e-05 -2.1625957627038747e-03 0.0000000000000000e+00  -1.3519897507151157e-04 -2.7536946506843290e-03 0.0000000000000000e+00  -2.1556759223516901e-04 -4.5545301624716475e-03 0.0000000000000000e+00  -1.9808635832350096e-04 -4.3465359891503470e-03 0.0000000000000000e+00  -1.5761728984898369e-04 -3.1742646428285439e-03 0.0000000000000000e+00  -1.7075221087688804e-04 -3.5806415323972542e-03 0.0000000000000000e+00  -1.8218727068008059e-04 -4.0406570350382349e-03 0.0000000000000000e+00  -7.4437210594522661e-05 -6.6326808590190848e-04 0.0000000000000000e+00  -3.4590109369158169e-04 -5.3764572101561662e-03 0.0000000000000000e+00  -1.7835483853398778e-04 -3.7928927500663462e-03 0.0000000000000000e+00  -8.5436106420068843e-05 -1.4070036025974272e-03 0.0000000000000000e+00  -1.1249831523315816e-04 -2.4939019044683398e-03 0.0000000000000000e+00  -4.0763750616704124e-05 -1.0353265457707719e-04 0.0000000000000000e+00  -1.5242732059839417e-04 -5.8928309197333328e-03 0.0000000000000000e+00  -1.2336584704642420e-05 -3.1666573576626304e-06 0.0000000000000000e+00  -1.7588609421595800e-04 -4.4638001844555051e-03 0.0000000000000000e+00  -2.1236158721528261e-04 -4.7120223297815993e-03 0.0000000000000000e+00  -2.3761558844875846e-04 -4.7773820797785702e-03 0.0000000000000000e+00  -2.1199341195035599e-04 -2.9772256162874391e-03 0.0000000000000000e+00  -1.9614435473968241e-04 -4.6262145950428275e-03 0.0000000000000000e+00  -2.7874686801610140e-04 -4.8797998493187531e-03 0.0000000000000000e+00  -1.5035644960588920e-04 -4.2068326287857238e-03 0.0000000000000000e+00  -3.1904553029984896e-04 -5.0437276667351294e-03 0.0000000000000000e+00  -2.2453622516699833e-04 -3.3918798739658025e-03 0.0000000000000000e+00  -1.6171929028068220e-04 -1.9138568643486211e-03 0.0000000000000000e+00  -9.7712386488987477e-05 -3.2169469775371697e-04 0.0000000000000000e+00  -2.9138918973445544e-04 -5.6500487658625760e-03 0.0000000000000000e+00  -4.0675192539570203e-04 -5.2400753304963016e-03 0.0000000000000000e+00  -6.7729183838499411e-06 -8.6368329090865423e-04 0.0000000000000000e+00  -3.0608947139371595e-04 -5.2239565208441778e-03 0.0000000000000000e+00  -1.8095793026521489e-04 -9.2530227749269313e-04 0.0000000000000000e+00  -4.0196836577871851e-04 -5.0450482738562561e-03 0.0000000000000000e+00  -3.4167386975720611e-04 -4.8749619470906738e-03 0.0000000000000000e+00  -2.8148014500518502e-04 -4.7734763505985559e-03 0.0000000000000000e+00  -1.6745805860792813e-04 -5.6560276536688986e-03 0.0000000000000000e+00  4.1107143522484160e-06 -2.8518823799863471e-04 0.0000000000000000e+00  -2.4803415156309059e-04 -4.6367294278184291e-03 0.0000000000000000e+00  -2.5063347959653756e-04 -4.7130133221470463e-03 0.0000000000000000e+00  -3.6773661181387366e-05 -2.9016214861976395e-03 0.0000000000000000e+00  2.5155589166265710e-05 -1.8322426904413870e-03 0.0000000000000000e+00  -2.5513831262104431e-04 -4.4295747210052029e-03 0.0000000000000000e+00  -2.5948917953905529e-04 -4.2543142654575357e-03 0.0000000000000000e+00  -6.4769868104693940e-05 -3.3176359951793237e-03 0.0000000000000000e+00  -8.2489420331202044e-06 3.1497185515770325e-06 0.0000000000000000e+00  -1.8178782562547186e-06 6.4445538581393981e-06 0.0000000000000000e+00  -9.8775152892741384e-05 -3.9442587667670804e-03 0.0000000000000000e+00  -2.1769197215789479e-04 -2.2920291408974097e-03 0.0000000000000000e+00  -2.0026803650781047e-04 -1.2246570010413828e-03 0.0000000000000000e+00  -6.6623456010855164e-05 -6.7425210974193965e-05 0.0000000000000000e+00  -9.1097643582266973e-05 -1.5579354700098784e-04 0.0000000000000000e+00  -8.0331552438706611e-05 -3.6980965892507221e-03 0.0000000000000000e+00  -2.0863520137523033e-04 -1.5196041180948860e-03 0.0000000000000000e+00  -2.3914047825080722e-04 -2.6052360876328701e-03 0.0000000000000000e+00  -1.5598936620079583e-04 -5.8402610178590541e-04 0.0000000000000000e+00  -2.6825589539668070e-04 -5.4281438944436492e-03 0.0000000000000000e+00  -3.9879059157640044e-04 -5.4383150810595167e-03 0.0000000000000000e+00  1.1007541497658414e-05 -5.7109439853511058e-04 0.0000000000000000e+00  -4.2203672306979093e-05 -1.7379587070970441e-05 0.0000000000000000e+00  -7.4463246399029186e-05 -5.7941616778659768e-03 0.0000000000000000e+00  -2.7351742545403878e-04 -3.9575230746503043e-03 0.0000000000000000e+00  -2.6857409994320556e-04 -3.7112159545980763e-03 0.0000000000000000e+00  4.9897807504293480e-05 -1.2043638313229720e-03 0.0000000000000000e+00  2.6730837359157992e-06 -6.1384638163802951e-05 0.0000000000000000e+00  9.8469736100501254e-06 -1.5544225611464110e-04 0.0000000000000000e+00  3.0454230376872896e-05 -2.2798812168163349e-03 0.0000000000000000e+00  6.4683294183422039e-05 -1.4984862463172715e-03 0.0000000000000000e+00  2.7465985087942186e-05 -2.5814353243694172e-03 0.0000000000000000e+00  -2.5873093006212047e-05 -3.0261285001383232e-06 0.0000000000000000e+00  -3.1832059485474661e-05 -5.9031442768070356e-03 0.0000000000000000e+00  -3.8791338437854997e-04 -4.9669201899236884e-03 0.0000000000000000e+00  -3.2072536202210061e-04 -4.8245832727484466e-03 0.0000000000000000e+00  1.3972139975012476e-05 -3.8447399600874421e-04 0.0000000000000000e+00  -2.6861577895875567e-04 -4.7456124705345659e-03 0.0000000000000000e+00  -2.0214332522455248e-04 -5.5677204505925103e-03 0.0000000000000000e+00  -2.4989288275148810e-04 -4.6868407783109195e-03 0.0000000000000000e+00  -2.5437439031873325e-04 -4.5891047063426303e-03 0.0000000000000000e+00  3.6767167537588615e-05 -2.0146909602749194e-03 0.0000000000000000e+00  -2.5972849919131961e-04 -4.5081878731635253e-03 0.0000000000000000e+00  -3.5415290186166660e-05 -3.0684373524499870e-03 0.0000000000000000e+00  -2.6732139741382233e-04 -4.1397753594097780e-03 0.0000000000000000e+00  -5.9492720128569317e-05 -3.4699057074905398e-03 0.0000000000000000e+00  -2.3486139935042315e-04 -5.8357838101366719e-03 0.0000000000000000e+00  -2.8676852362901039e-04 -5.3083549730798792e-03 0.0000000000000000e+00  -1.8591211197157629e-04 -7.7437067313822520e-04 0.0000000000000000e+00  1.6276350354268814e-07 -1.4482520895888908e-05 0.0000000000000000e+00  -2.7156812417775205e-06 5.3420822100570618e-06 0.0000000000000000e+00  -1.3300666781322388e-04 -4.3908898446161212e-03 0.0000000000000000e+00  -2.8044101658617084e-04 -3.5195650568146755e-03 0.0000000000000000e+00  -1.6726710219078084e-04 -4.5863839823366030e-03 0.0000000000000000e+00  -2.4668728408068399e-04 -4.8473576091089855e-03 0.0000000000000000e+00  -1.9258686623899085e-04 -4.6923589357119686e-03 0.0000000000000000e+00  -2.1504366535956038e-04 -4.7587999998284260e-03 0.0000000000000000e+00  -2.6147487635978616e-04 -3.1238414231121153e-03 0.0000000000000000e+00  -9.9921154607464195e-05 -4.1066558545549033e-03 0.0000000000000000e+00  -2.3078953355370411e-04 -2.0660843330542757e-03 0.0000000000000000e+00  -2.7224617888659794e-04 -2.8400723443681277e-03 0.0000000000000000e+00  -2.9485186094651775e-04 -5.1133905048892222e-03 0.0000000000000000e+00  -2.3331765712633165e-04 -1.7670318390956622e-03 0.0000000000000000e+00  -2.9007155047964834e-04 -4.9878657047308676e-03 0.0000000000000000e+00  -1.4792267290869663e-04 -4.0616751679978865e-04 0.0000000000000000e+00  -1.2353421498258361e-04 -2.4964159073473174e-04 0.0000000000000000e+00  -2.9592889959606994e-04 -5.7281686423493869e-03 0.0000000000000000e+00  -3.6778964667247787e-04 -5.5760730987790995e-03 0.0000000000000000e+00  -2.4144313613636711e-04 -4.8102031804304430e-03 0.0000000000000000e+00  -2.1274984415210326e-04 -4.7356060165001023e-03 0.0000000000000000e+00  -1.6649789978735301e-04 -4.5303518401010627e-03 0.0000000000000000e+00  -2.7836813322561709e-04 -4.9340595281384811e-03 0.0000000000000000e+00  -1.9293622176420839e-04 -4.6636433515428411e-03 0.0000000000000000e+00  -1.3283870289497324e-04 -4.3031443333079577e-03 0.0000000000000000e+00  -2.6322008882509641e-04 -3.2592861674974531e-03 0.0000000000000000e+00  3.6563930571092354e-05 -7.4225554069942169e-04 0.0000000000000000e+00  -4.3324328337295242e-04 -5.3115682554395419e-03 0.0000000000000000e+00  -4.3094867338232278e-04 -5.1572535579443709e-03 0.0000000000000000e+00  4.0306621429051944e-05 -9.927