<?xml version="1.0"?>
<VTKFile type="UnstructuredGrid"  version="0.1"  >
<UnstructuredGrid>
<Piece  NumberOfPoints="439" NumberOfCells="725">
<Points>
<DataArray  type="Float64"  NumberOfComponents="3"  format="ascii">0.5994967198277482 0.17633683880959 0  0.6003384763874885 0.1963397443667192 0  0.2489897949 0.21 0  0.2489897949 0.19 0  0.5999176172873151 0.1863382882417193 0  0.2496355385699469 0.2060260530378829 0  0.249959460510575 0.2020130349814059 0  0.2499594605105767 0.1979869650186357 0  0.24963553856995 0.1939739469621422 0  0.2539658574237516 0.2099708307416293 0  0.2589437058903722 0.2099399653674874 0  0.2639206403083286 0.2099013043797285 0  0.268895071957109 0.2098392202033951 0  0.2738670312449644 0.2097651882271719 0  0.2788393243083947 0.2096739893788108 0  0.2838080571612465 0.2095746089165153 0  0.2887734765561899 0.2094603942053492 0  0.2937383405757549 0.2093351202770004 0  0.2987009227742816 0.2091991547734624 0  0.3036638255396757 0.2090495579933939 0  0.3086259203449345 0.2088981004334808 0  0.3135839492487403 0.2087319454863353 0  0.3185441289254806 0.2085589314274796 0  0.3234996827387278 0.2083793513852453 0  0.3284550413318651 0.2081912806920078 0  0.3334086749944125 0.2079984425321653 0  0.3383608894033608 0.2077979638410902 0  0.343311335339431 0.2075949556891156 0  0.3482608590303801 0.2073863323225017 0  0.3532090662656626 0.2071741891705873 0  0.3581560187869007 0.2069591129875151 0  0.3631026821396655 0.2067397516395047 0  0.3680487997760059 0.2065200726416906 0  0.3729935947428408 0.2062970187681937 0  0.3779375980264702 0.2060732147626247 0  0.3828809520981766 0.2058476897624986 0  0.387823673311255 0.2056212411019527 0  0.3927658079276908 0.2053943082424584 0  0.397707563154906 0.2051667977957251 0  0.4026489874562752 0.204939395446323 0  0.4075899524686037 0.2047118834497502 0  0.4125306217934762 0.2044848109637219 0  0.4174710873793043 0.2042579289055143 0  0.4224114190974471 0.2040317118787106 0  0.4273514550140538 0.2038060106903071 0  0.4322915948691834 0.2035810987331074 0  0.437231433040661 0.2033570451902728 0  0.4421715147473687 0.203133686348062 0  0.4471116775714207 0.2029113497579033 0  0.4520517846327256 0.2026898193323863 0  0.456991916325856 0.2024692467506442 0  0.4619323924313078 0.2022496026276661 0  0.4668728663839585 0.2020308130597868 0  0.4718134707515619 0.2018130019608195 0  0.4767544659002085 0.2015960789494273 0  0.4816955526674248 0.2013799474702472 0  0.4866368166280222 0.2011647214961308 0  0.4915784641510965 0.2009502370203921 0  0.4965202383726091 0.2007364442295732 0  0.5014622090740599 0.2005234237661012 0  0.5064045413779741 0.2003110240652643 0  0.5113470120937055 0.2000991869931169 0  0.5162896845965388 0.1998879753176862 0  0.5212326767978219 0.1996772397166939 0  0.5261757822273662 0.199466951581458 0  0.5311190778454385 0.1992571207846544 0  0.5360625961115791 0.1990476506199884 0  0.5410063128847936 0.1988384425530265 0  0.5459502282207367 0.1986295603921572 0  0.5508942588699673 0.1984209617405727 0  0.55583833475239 0.1982124079592345 0  0.5607825953075766 0.1980041135780918 0  0.5657268822342717 0.1977959341477979 0  0.5706712933160166 0.1975878175515735 0  0.5756157709763667 0.1973797997230601 0  0.580560279234008 0.1971717797689947 0  0.58550482923624 0.1969637867002523 0  0.5904493827935225 0.1967557960382395 0  0.5953939353030956 0.1965477762163189 0  0.5945521761228224 0.1765449319817666 0  0.5896075860698321 0.1767530173304426 0  0.584662967113996 0.1769610857510472 0  0.5797182915339322 0.1771691756189645 0  0.5747735696489632 0.1773773136317205 0  0.56982879859805 0.177585478045014 0  0.5648839748387353 0.1777937693272605 0  0.5599390713691785 0.1780021944458938 0  0.5549941708712156 0.1782107264445572 0  0.5500492184780948 0.1784195229718892 0  0.5451042281223476 0.1786284700291838 0  0.5401592852898323 0.1788377401054534 0  0.5352142964329882 0.1790474297632363 0  0.5302692307804799 0.1792572316910631 0  0.5253242919422437 0.1794675682651802 0  0.5203793100875432 0.1796785207877706 0  0.5154342592480698 0.1798896361350818 0  0.5104894390344502 0.1801014779696444 0  0.5055445749670163 0.1803140902993352 0  0.5005996417112762 0.1805269041199813 0  0.4956550202353696 0.1807406331238374 0  0.4907103572332084 0.1809552861109594 0  0.4857656296618205 0.1811701738006132 0  0.4808212858962815 0.1813861444028563 0  0.475876901013032 0.1816031765109642 0  0.4709324885961866 0.1818205643864307 0  0.4659883729609191 0.1820390263828061 0  0.4610442914700034 0.1822586692845622 0  0.4561002843445385 0.1824785674314777 0  0.4511567774197503 0.1826996983848995 0  0.4462131870980751 0.1829221048675876 0  0.4412696251628956 0.1831447468880538 0  0.4363264489101727 0.1833686678688527 0  0.4313835245512734 0.1835930980953522 0  0.4264408289226865 0.1838183970319244 0  0.4214984658526851 0.1840444629234474 0  0.4165562298679458 0.1842709993347588 0  0.4116143256916152 0.1844981152951421 0  0.4066727389793613 0.1847255345797609 0  0.4017316023447247 0.1849532000779792 0  0.396790975096159 0.1851808055398299 0  0.3918507261785791 0.1854083346417753 0  0.3869109266620389 0.1856353985934923 0  0.3819719960765255 0.1858621467245687 0  0.3770334001118215 0.1860875270350141 0  0.3720961169153998 0.1863116425988612 0  0.367158935764576 0.1865343380040462 0  0.3622227721556023 0.1867544058389606 0  0.3572869767121345 0.1869727792895358 0  0.3523519050106108 0.1871878857173017 0  0.34741916977708 0.1874007454558179 0  0.3424860358680862 0.1876089675197831 0  0.3375559047952618 0.1878124921193223 0  0.3326245155704675 0.1880113551625445 0  0.3276952164659935 0.1882022258689346 0  0.3227672733298977 0.1883910710806021 0  0.3178395545473113 0.188570299738249 0  0.3129163474539972 0.1887426760557875 0  0.3079908158946228 0.1889073735225076 0  0.3030675857309967 0.189060617360336 0  0.2981444021547739 0.1892070364790865 0  0.2932220645178815 0.1893413623127474 0  0.2883044852542415 0.189467323331654 0  0.2833835500873245 0.1895806080401216 0  0.2784686067167813 0.1896820717011832 0  0.273551198464379 0.1897675605137383 0  0.2686393800937408 0.1898397633431458 0  0.2637254771057312 0.1899012185087904 0  0.2588123394645762 0.1899453760033055 0  0.253900747794565 0.1899697429165506 0  0.5997071744581656 0.1813375657897824 0  0.6001280609603302 0.1913390146791571 0  0.258977918508458 0.2005198868259451 0  0.5430549583540084 0.1887331553378837 0  0.5681510611031473 0.1876452842314302 0  0.277464637222344 0.2005144527464263 0  0.5137519315789892 0.189880460490547 0  0.5285840157034575 0.1892484007680973 0  0.2944900951302049 0.1986183674272966 0  0.5826737788200858 0.1866059068928294 0  0.3104047516232285 0.1988160193567055 0  0.3370127965830765 0.1986815314796213 0  0.49892101761713 0.1905174292561869 0  0.3552515775198212 0.197077986473699 0  0.4840914710090621 0.1911605105676097 0  0.3706988223766686 0.1964050336529945 0  0.3898379294447087 0.1955157133168461 0  0.4688779713849351 0.1914665165048372 0  0.4540749980382662 0.1925831892700682 0  0.4042992522614101 0.1949469671069615 0  0.4194841212927264 0.1941505727092456 0  0.438624951769758 0.1932637577078506 0  0.3202361479284562 0.1985111451067666 0  0.5583158774387541 0.1880801790573019 0  0.4279884792375855 0.1936102489973417 0  0.3467465610296866 0.1975966322184985 0  0.3813340433983303 0.1960576273941785 0  0.286067283170843 0.1995764545116258 0  0.590964786621859 0.1849565536135359 0  0.2680093359912588 0.2015460085083299 0  0.46158804404073 0.1945022732439641 0  0.4912418940161225 0.1932015623546124 0  0.5060711552829171 0.1925617373759166 0  0.3971463392694269 0.1929254438431873 0  0.4764141914257521 0.1938480645217762 0  0.5209018832335403 0.1919274393040625 0  0.4467633137337503 0.1951647439123864 0  0.5357338561228741 0.1912974411349885 0  0.4119694001684402 0.1922422121479403 0  0.3625641400385863 0.1945020465326979 0  0.3033004173183225 0.196819331603866 0  0.5750998809082608 0.1851278239594406 0  0.5502482089487258 0.1855525165475472 0  0.3282854129850385 0.2010716053767125 0  0.5484896994925795 0.1923510461841894 0  0.3300710726376855 0.1942833230983886 0  0.5376648618363435 0.185079404213837 0  0.5228312254645627 0.18570931276981 0  0.5079983366038261 0.1863434331381452 0  0.5775487753442543 0.1911615809651589 0  0.3012897217328543 0.2030070040514458 0  0.4783356652381523 0.1876290489100506 0  0.4931664217166434 0.186982960253372 0  0.3952372240236168 0.1991471889584005 0  0.3606430002545041 0.2007196999787088 0  0.4591260928471928 0.1884772904190106 0  0.4486780056969878 0.1889444430133645 0  0.410060416231222 0.1984640690787752 0  0.2557726222734788 0.1960709344486632 0  0.255025923376795 0.2034307084207526 0  0.4348995853933695 0.1972264121156268 0  0.3744249844094617 0.1924426211532069 0  0.3404428220149033 0.1937520819940178 0  0.2812216854652241 0.1956882587746427 0  0.2911719744822334 0.1954920503870842 0  0.4247810729899912 0.1978671897441673 0  0.3499679550675935 0.193349462549773 0  0.3845417407312807 0.1918005027254217 0  0.316490500856947 0.1947915460238749 0  0.5622259813191093 0.19171312887005 0  0.5621874962795939 0.1839948411169259 0  0.3163617376746216 0.2025096948769533 0  0.2710301839288911 0.1957927904751771 0  0.5874159109868676 0.1915961006421547 0  0.4343880402306464 0.1889288978750492 0  0.4240722410503071 0.1898102306572489 0  0.3404287833119646 0.2025080629445381 0  0.2809612692671851 0.2044210738756046 0  0.2915240070316756 0.2041832303526937 0  0.3749336895525401 0.2007389603229766 0  0.3501131940557948 0.2024806847522522 0  0.3847162792482368 0.2009332851236813 0  0.2647769373838761 0.196113887847977 0  0.5944116394945327 0.1906192410875291 0  0.5318197512433246 0.1848456922994945 0  0.5169862856414172 0.1854771623060535 0  0.3071208471491127 0.2032984812017346 0  0.5021536098535221 0.1861133173252974 0  0.5717565205534383 0.1918781804502546 0  0.4873219493325127 0.186755344994942 0  0.4725348530036166 0.1873981443815783 0  0.3664866629108173 0.2009525778478514 0
[...]
<PointData  Vectors="d"> 
<DataArray  type="Float64"  Name="d"  NumberOfComponents="3" format="ascii">-5.0328017225164496e-04 -1.3663161190410026e-02 0.0000000000000000e+00  3.3847638748854591e-04 -1.3660255633280771e-02 0.0000000000000000e+00  0.0000000000000000e+00 0.0000000000000000e+00 0.0000000000000000e+00  0.0000000000000000e+00 0.0000000000000000e+00 0.0000000000000000e+00  -8.2382712684922956e-05 -1.3661711758280732e-02 0.0000000000000000e+00  0.0000000000000000e+00 0.0000000000000000e+00 0.0000000000000000e+00  0.0000000000000000e+00 0.0000000000000000e+00 0.0000000000000000e+00  0.0000000000000000e+00 0.0000000000000000e+00 0.0000000000000000e+00  0.0000000000000000e+00 0.0000000000000000e+00 0.0000000000000000e+00  3.2256818122301192e-05 -2.9169258370707585e-05 0.0000000000000000e+00  6.6299579118080527e-05 -6.0034632512586295e-05 0.0000000000000000e+00  9.9428291436439242e-05 -9.8695620271494218e-05 0.0000000000000000e+00  1.3005423457901149e-04 -1.6077979660487573e-04 0.0000000000000000e+00  1.5820781680744145e-04 -2.3481177282815436e-04 0.0000000000000000e+00  1.8669517461939724e-04 -3.2601062118920538e-04 0.0000000000000000e+00  2.1162232185280728e-04 -4.2539108348467198e-04 0.0000000000000000e+00  2.3323601117328270e-04 -5.3960579465075857e-04 0.0000000000000000e+00  2.5429432510268779e-04 -6.6487972299962225e-04 0.0000000000000000e+00  2.7307081801078952e-04 -8.0084522653758069e-04 0.0000000000000000e+00  2.9216787777608334e-04 -9.5044200660611736e-04 0.0000000000000000e+00  3.1045697741635149e-04 -1.1018995665192013e-03 0.0000000000000000e+00  3.2468017560379278e-04 -1.2680545136646887e-03 0.0000000000000000e+00  3.4105414672565450e-04 -1.4410685725203608e-03 0.0000000000000000e+00  3.5280225435464308e-04 -1.6206486147546369e-03 0.0000000000000000e+00  3.6435514187337233e-04 -1.8087193079921965e-03 0.0000000000000000e+00  3.7418309879175000e-04 -2.0015574678347351e-03 0.0000000000000000e+00  3.8259180213240737e-04 -2.2020361589097609e-03 0.0000000000000000e+00  3.8923203257340680e-04 -2.4050443108843815e-03 0.0000000000000000e+00  3.9495001790412581e-04 -2.6136676774982542e-03 0.0000000000000000e+00  3.9935154756816447e-04 -2.8258108294127032e-03 0.0000000000000000e+00  4.0249836318792390e-04 -3.0408870124849123e-03 0.0000000000000000e+00  4.0535601033439572e-04 -3.2602483604953175e-03 0.0000000000000000e+00  4.0766794105637135e-04 -3.4799273583093994e-03 0.0000000000000000e+00  4.0865720226203534e-04 -3.7029812318062692e-03 0.0000000000000000e+00  4.0885478028254506e-04 -3.9267852373752994e-03 0.0000000000000000e+00  4.0840314636456061e-04 -4.1523102375014371e-03 0.0000000000000000e+00  4.0731865382125619e-04 -4.3787588980472233e-03 0.0000000000000000e+00  4.0564756462763770e-04 -4.6056917575416044e-03 0.0000000000000000e+00  4.0359708623546186e-04 -4.8332022042748696e-03 0.0000000000000000e+00  4.0121568197663631e-04 -5.0606045536770068e-03 0.0000000000000000e+00  3.9837498869301321e-04 -5.2881165502498264e-03 0.0000000000000000e+00  3.9523860794506214e-04 -5.5151890362781161e-03 0.0000000000000000e+00  3.9189848815239406e-04 -5.7420710944857080e-03 0.0000000000000000e+00  3.8842450068346664e-04 -5.9682881212894182e-03 0.0000000000000000e+00  3.8465471166198770e-04 -6.1939893096928846e-03 0.0000000000000000e+00  3.8098886115814405e-04 -6.4189012668926229e-03 0.0000000000000000e+00  3.7702132698378896e-04 -6.6429548097271746e-03 0.0000000000000000e+00  3.7329732803574925e-04 -6.8663136519379617e-03 0.0000000000000000e+00  3.6965444642394617e-04 -7.0886502420966979e-03 0.0000000000000000e+00  3.6595580208109393e-04 -7.3101806676137276e-03 0.0000000000000000e+00  3.6228178956951214e-04 -7.5307532493558106e-03 0.0000000000000000e+00  3.5895218939186081e-04 -7.7503973723338972e-03 0.0000000000000000e+00  3.5562043639200322e-04 -7.9691869402132316e-03 0.0000000000000000e+00  3.5241909836213498e-04 -8.1869980391805330e-03 0.0000000000000000e+00  3.4960854134179410e-04 -8.4039210505726918e-03 0.0000000000000000e+00  3.4688960291133031e-04 -8.6200525297527586e-03 0.0000000000000000e+00  3.4434785784614942e-04 -8.8352785038692001e-03 0.0000000000000000e+00  3.4218967528982657e-04 -9.0497629796079549e-03 0.0000000000000000e+00  3.4015819114812025e-04 -9.2635557704268193e-03 0.0000000000000000e+00  3.3832318697025722e-04 -9.4765762338988174e-03 0.0000000000000000e+00  3.3684978522479595e-04 -9.6889759347356802e-03 0.0000000000000000e+00  3.3551479531813505e-04 -9.9008130068830580e-03 0.0000000000000000e+00  3.3438159253516061e-04 -1.0112024682313762e-02 0.0000000000000000e+00  3.3356808818040093e-04 -1.0322760283306085e-02 0.0000000000000000e+00  3.3286781206607019e-04 -1.0533048418541991e-02 0.0000000000000000e+00  3.3235772449952887e-04 -1.0742879215345611e-02 0.0000000000000000e+00  3.3207028498048068e-04 -1.0952349380011611e-02 0.0000000000000000e+00  3.3198135255702694e-04 -1.1161557446973508e-02 0.0000000000000000e+00  3.3209098288368682e-04 -1.1370439607842795e-02 0.0000000000000000e+00  3.3231592647650719e-04 -1.1579038259427349e-02 0.0000000000000000e+00  3.3258610324433344e-04 -1.1787592040765521e-02 0.0000000000000000e+00  3.3304095278804540e-04 -1.1995886421908250e-02 0.0000000000000000e+00  3.3352217382359196e-04 -1.2204065852202029e-02 0.0000000000000000e+00  3.3412754990497082e-04 -1.2412182448426465e-02 0.0000000000000000e+00  3.3479950462081897e-04 -1.2620200276939933e-02 0.0000000000000000e+00  3.3550205662464047e-04 -1.2828220231005313e-02 0.0000000000000000e+00  3.3624635320590068e-04 -1.3036213299747700e-02 0.0000000000000000e+00  3.3699420484166942e-04 -1.3244203961760554e-02 0.0000000000000000e+00  3.3774100875511780e-04 -1.3452223783681090e-02 0.0000000000000000e+00  -5.0401817156072544e-04 -1.3455068018233375e-02 0.0000000000000000e+00  -5.0480251892596442e-04 -1.3246982669557412e-02 0.0000000000000000e+00  -5.0561576912326719e-04 -1.3038914248952753e-02 0.0000000000000000e+00  -5.0648564354050375e-04 -1.2830824381035557e-02 0.0000000000000000e+00  -5.0740182288810064e-04 -1.2622686368279529e-02 0.0000000000000000e+00  -5.0836716818095443e-04 -1.2414521954985984e-02 0.0000000000000000e+00  -5.0938522188272476e-04 -1.2206230672739467e-02 0.0000000000000000e+00  -5.1048298581028197e-04 -1.1997805554106167e-02 0.0000000000000000e+00  -5.1157777814239962e-04 -1.1789273555442802e-02 0.0000000000000000e+00  -5.1272446560864039e-04 -1.1580477028110792e-02 0.0000000000000000e+00  -5.1390911575660981e-04 -1.1371529970816188e-02 0.0000000000000000e+00  -5.1504624267280938e-04 -1.1162259894546653e-02 0.0000000000000000e+00  -5.1622939390793252e-04 -1.0952570236763770e-02 0.0000000000000000e+00  -5.1748934078299177e-04 -1.0742768308936902e-02 0.0000000000000000e+00  -5.1862247341913402e-04 -1.0532431734819754e-02 0.0000000000000000e+00  -5.1979862248125298e-04 -1.0321479212229444e-02 0.0000000000000000e+00  -5.2104375635192814e-04 -1.0110363864918209e-02 0.0000000000000000e+00  -5.2205826437239599e-04 -9.8985220303556345e-03 0.0000000000000000e+00  -5.2311662620134979e-04 -9.6859097006647757e-03 0.0000000000000000e+00  -5.2424417630431380e-04 -9.4730958800186872e-03 0.0000000000000000e+00  -5.2505994660238440e-04 -9.2593668761625537e-03 0.0000000000000000e+00  -5.2591724314469794e-04 -9.0447138890405697e-03 0.0000000000000000e+00  -5.2683910891381620e-04 -8.8298261993867682e-03 0.0000000000000000e+00  -5.2737716882308115e-04 -8.6138555971437113e-03 0.0000000000000000e+00  -5.2795634646461578e-04 -8.3968234890357644e-03 0.0000000000000000e+00  -5.2856305768162772e-04 -8.1794356135693625e-03 0.0000000000000000e+00  -5.2887298733633866e-04 -7.9609736171939206e-03 0.0000000000000000e+00  -5.2914877263155868e-04 -7.7413307154377692e-03 0.0000000000000000e+00  -5.2935019247188342e-04 -7.5214325685223245e-03 0.0000000000000000e+00  -5.2905141163055603e-04 -7.3003016151004596e-03 0.0000000000000000e+00  -5.2883602769658719e-04 -7.0778951324123388e-03 0.0000000000000000e+00  -5.2859225725092026e-04 -6.8552531119462027e-03 0.0000000000000000e+00  -5.2796280435693781e-04 -6.6313321311473033e-03 0.0000000000000000e+00  -5.2708145763972960e-04 -6.4069019046477842e-03 0.0000000000000000e+00  -5.2597138060017201e-04 -6.1816029680755984e-03 0.0000000000000000e+00  -5.2452874496309828e-04 -5.9555370765526690e-03 0.0000000000000000e+00  -5.2295902405981830e-04 -5.7290006652411917e-03 0.0000000000000000e+00  -5.2105749474423116e-04 -5.5018847048578781e-03 0.0000000000000000e+00  -5.1883850133817343e-04 -5.2744654202390743e-03 0.0000000000000000e+00  -5.1616943032303591e-04 -5.0467999220208245e-03 0.0000000000000000e+00  -5.1299097323110764e-04 -4.8191944601701482e-03 0.0000000000000000e+00  -5.0943418517567917e-04 -4.5916653582247554e-03 0.0000000000000000e+00  -5.0542799606930399e-04 -4.3646014065076575e-03 0.0000000000000000e+00  -5.0055287595681677e-04 -4.1378532754313569e-03 0.0000000000000000e+00  -4.9534313500430817e-04 -3.9124729649859377e-03 0.0000000000000000e+00  -4.8882062577746354e-04 -3.6883574011388649e-03 0.0000000000000000e+00  -4.8219607093246043e-04 -3.4656619959538477e-03 0.0000000000000000e+00  -4.7455397425908184e-04 -3.2455941610393855e-03 0.0000000000000000e+00  -4.6654371207629938e-04 -3.0272207104642041e-03 0.0000000000000000e+00  -4.5780970797825615e-04 -2.8121142826982911e-03 0.0000000000000000e+00  -4.4673923585100700e-04 -2.5992545441821040e-03 0.0000000000000000e+00  -4.3606743920586156e-04 -2.3910324802168519e-03 0.0000000000000000e+00  -4.2239280639174846e-04 -2.1875078806776996e-03 0.0000000000000000e+00  -4.0997632554767838e-04 -1.9886448374555150e-03 0.0000000000000000e+00  -3.9546972438157769e-04 -1.7977741310653431e-03 0.0000000000000000e+00  -3.7960715481940671e-04 -1.6089289193978703e-03 0.0000000000000000e+00  -3.6352023174777883e-04 -1.4297002617509563e-03 0.0000000000000000e+00  -3.4292161940397049e-04 -1.2573239442125071e-03 0.0000000000000000e+00  -3.2464747313529923e-04 -1.0926264774923510e-03 0.0000000000000000e+00  -3.0407193112294328e-04 -9.3938263966402433e-04 0.0000000000000000e+00  -2.8344980170738176e-04 -7.9296352091345825e-04 0.0000000000000000e+00  -2.6198173296152031e-04 -6.5863768725262688e-04 0.0000000000000000e+00  -2.3575529094592077e-04 -5.3267666834596727e-04 0.0000000000000000e+00  -2.1288475220505152e-04 -4.1939195987842931e-04 0.0000000000000000e+00  -1.8402241709032923e-04 -3.1792829881680960e-04 0.0000000000000000e+00  -1.5762496384527246e-04 -2.3243948626165559e-04 0.0000000000000000e+00  -1.2563762884514648e-04 -1.6023665685419421e-04 0.0000000000000000e+00  -9.5734911216387584e-05 -9.8781491209636960e-05 0.0000000000000000e+00  -6.5066846733066342e-05 -5.4623996694484624e-05 0.0000000000000000e+00  -3.2852811092923744e-05 -3.0257083449417236e-05 0.0000000000000000e+00  -2.9282554183445808e-04 -1.3662434210195879e-02 0.0000000000000000e+00  1.2806096033018459e-04 -1.3660985320815779e-02 0.0000000000000000e+00  4.4919768087443032e-06 -3.2502516895244490e-05 0.0000000000000000e+00  -9.1276031299334650e-05 -1.1266844662085317e-02 0.0000000000000000e+00  -8.8728373668916848e-05 -1.2325174349468483e-02 0.0000000000000000e+00  1.3244510541626643e-05 -2.7973919576627639e-04 0.0000000000000000e+00  -9.7651797907704444e-05 -1.0021882158544902e-02 0.0000000000000000e+00  -9.6984790280601164e-05 -1.0653941880999546e-02 0.0000000000000000e+00  -2.0800075559760987e-05 -6.7282341324196226e-04 0.0000000000000000e+00  -1.0430431840690682e-04 -1.2937073207505506e-02 0.0000000000000000e+00  -8.0880336970398140e-06 -1.1544392241922728e-03 0.0000000000000000e+00  1.2621041221429368e-05 -2.1479297637753761e-03 0.0000000000000000e+00  -9.7148642915908349e-05 -9.3849133929033400e-03 0.0000000000000000e+00  -3.0040051083163714e-05 -2.9220135263618558e-03 0.0000000000000000e+00  -9.5278134130413162e-05 -8.7418320814752499e-03 0.0000000000000000e+00  -3.8549013886535415e-05 -3.6092040423744269e-03 0.0000000000000000e+00  -5.0328065540719421e-05 -4.4842866832366570e-03 0.0000000000000000e+00  -1.0778366433827934e-04 -8.0751559208322461e-03 0.0000000000000000e+00  -8.2733645930454139e-05 -7.4168107298415494e-03 0.0000000000000000e+00  -5.4239140423039279e-05 -5.1506902439629734e-03 0.0000000000000000e+00  -6.6970451230527570e-05 -5.8494272908601172e-03 0.0000000000000000e+00  -7.7026094693196729e-05 -6.7220045968266404e-03 0.0000000000000000e+00  -1.1127097214194326e-05 -1.4977391078733341e-03 0.0000000000000000e+00  -8.9476669330955890e-05 -1.1910936728055811e-02 0.0000000000000000e+00  -7.8235451127873216e-05 -6.2386558234824021e-03 0.0000000000000000e+00  -1.9433596860787487e-05 -2.5544629609389564e-03 0.0000000000000000e+00  -3.8591167560477494e-05 -4.0934677852735137e-03 0.0000000000000000e+00  -1.0545213668152288e-06 -4.6509005899238686e-04 0.0000000000000000e+00  -1.5759455626048588e-04 -1.3288362321338449e-02 0.0000000000000000e+00  2.0019845396080227e-05 -1.2911713839907669e-04 0.0000000000000000e+00  1.4603798102088267e-05 -7.7480900848362275e-03 0.0000000000000000e+00  5.6195397771802562e-06 -9.0488009741967572e-03 0.0000000000000000e+00  3.4636897188328347e-06 -9.6886259528952533e-03 0.0000000000000000e+00  -1.5762679925053247e-04 -4.8241928280091644e-03 0.0000000000000000e+00  9.3340662624554775e-06 -8.4022988070289444e-03 0.0000000000000000e+00  2.7745234947203331e-06 -1.0322924024755915e-02 0.0000000000000000e+00  2.1290607984703416e-05 -7.0856194164135690e-03 0.0000000000000000e+00  3.3302959892318319e-06 -1.0952922193831321e-02 0.0000000000000000e+00  -1.6598301709143970e-04 -5.5074245232573441e-03 0.0000000000000000e+00  -1.3318609074888411e-04 -3.2475901384940191e-03 0.0000000000000000e+00  -7.1240343573623736e-05 -9.3030506732086045e-04 0.0000000000000000e+00  -1.8109056356214480e-04 -1.2621812711709651e-02 0.0000000000000000e+00  -2.1164697033022707e-04 -1.1575961926219446e-02 0.0000000000000000e+00  9.2639770354456744e-05 -1.7999161495280854e-03 0.0000000000000000e+00  7.1797442833419501e-05 -1.1489275385286933e-02 0.0000000000000000e+00  -1.6365444631332495e-04 -1.8763553321605060e-03 0.0000000000000000e+00  -2.5622338746785769e-04 -1.1045777450574003e-02 0.0000000000000000e+00  -2.5844264240247746e-04 -1.0415868894595713e-02 0.0000000000000000e+00  -2.5991438629604922e-04 -9.7817485262645699e-03 0.0000000000000000e+00  7.7244475544901886e-05 -1.2713237370429821e-02 0.0000000000000000e+00  1.0862346789954095e-04 -8.6781428414790687e-04 0.0000000000000000e+00  -2.5975151825878762e-04 -8.4961327543534460e-03 0.0000000000000000e+00  -2.6041215662372106e-04 -9.1422214110342404e-03 0.0000000000000000e+00  1.2381735185375603e-04 -4.7276293771960666e-03 0.0000000000000000e+00  1.3623352209233422e-04 -3.1551183568862356e-03 0.0000000000000000e+00  -2.5678799852181929e-04 -7.6478912453887020e-03 0.0000000000000000e+00  -2.5457682569269429e-04 -7.1807386510361806e-03 0.0000000000000000e+00  1.1559244260004680e-04 -5.4107492568238645e-03 0.0000000000000000e+00  -1.3677706718352386e-05 -1.4902577066307325e-05 0.0000000000000000e+00  1.1187345855071044e-05 -1.1934578358854159e-05 0.0000000000000000e+00  9.6437746900585500e-05 -6.5473456485286236e-03 0.0000000000000000e+00  -2.1121719894828719e-04 -3.7836210826483647e-03 0.0000000000000000e+00  -1.8301457152720556e-04 -2.2947101999711630e-03 0.0000000000000000e+00  -7.8482653759289947e-05 -3.5853341940740878e-04 0.0000000000000000e+00  -9.6664261755858628e-05 -5.8958247784399935e-04 0.0000000000000000e+00  1.1053940800196184e-04 -6.0860180617871469e-03 0.0000000000000000e+00  -1.9422066531949139e-04 -2.6973296444148193e-03 0.0000000000000000e+00  -2.2707494098871744e-04 -4.2462894688142429e-03 0.0000000000000000e+00  -1.4186768140905936e-04 -1.3679125394951703e-03 0.0000000000000000e+00  7.0980213768336570e-05 -1.2068520389849098e-02 0.0000000000000000e+00  -2.5389142238316090e-04 -1.2081351244211849e-02 0.0000000000000000e+00  1.2223409130879625e-04 -1.3582608655158719e-03 0.0000000000000000e+00  -5.8529491871089521e-05 -1.7685385740672104e-04 0.0000000000000000e+00  1.1447334650717832e-04 -1.3126687460927594e-02 0.0000000000000000e+00  -2.7991641362447718e-04 -6.5362480802021823e-03 0.0000000000000000e+00  -2.5740935749147300e-04 -6.0654674366573142e-03 0.0000000000000000e+00  1.7283222861232451e-04 -2.2859870845541854e-03 0.0000000000000000e+00  9.2776591091694072e-05 -3.5316790566103411e-04 0.0000000000000000e+00  1.1630371780325270e-04 -5.9772135440178337e-04 0.0000000000000000e+00  1.6229694204689018e-04 -3.7958937218787892e-03 0.0000000000000000e+00  1.9154516590810425e-04 -2.6946565663783012e-03 0.0000000000000000e+00  1.8799041900706360e-04 -4.2420561949547079e-03 0.0000000000000000e+00  -3.7549161629173691e-05 -9.5086450660384909e-05 0.0000000000000000e+00  8.6875128243220253e-05 -1.3422301271389110e-02 0.0000000000000000e+00  -2.7750980228995176e-04 -1.0798817605592677e-02 0.0000000000000000e+00  -2.7955828735546631e-04 -1.0167347599031871e-02 0.0000000000000000e+00  1.2852158884697073e-04 -1.0483221855205340e-03 0.0000000000000000e+00  -2.8081695840439667e-04 -9.5311925797889902e-03 0.0000000000000000e+00  9.6216980003098449e-05 -1.2468622937021496e-02 0.0000000000000000e+00  -2.8106036256137401e-04 -8.8891649101411202e-03 0.0000000000000000e+00  -2.8034452600968462e-04 -8.2421025094110666e-03 0.0000000000000000e+00  1.5648525806361870e-04 -3.4148770160085527e-03 0.0000000000000000e+00  -2.7947260584314194e-04 -7.9042453030320082e-03 0.0000000000000000e+00  1.4270507426242463e-04 -4.9962189722820068e-03 0.0000000000000000e+00  -2.7490784378781600e-04 -6.9183648051850859e-03 0.0000000000000000e+00  1.3425462044865046e-04 -5.6781949438699884e-03 0.0000000000000000e+00  -2.6580691132459277e-04 -1.3094433121352491e-02 0.0000000000000000e+00  9.7489684718860442e-05 -1.1731526173365193e-02 0.0000000000000000e+00  -1.7705019932619001e-04 -1.6553336833562587e-03 0.0000000000000000e+00  7.2348272137277468e-05 -1.9077993410587061e-04 0.0000000000000000e+00  3.8800394348581521e-05 -7.6604250510494104e-05 0.0000000000000000e+00  1.2379572108394961e-04 -7.5365368423145930e-03 0.0000000000000000e+00  -2.7095039210064703e-04 -5.7187049176478880e-03 0.0000000000000000e+00  1.1676272469690693e-04 -8.1931661367450406e-03 0.0000000000000000e+00  1.0149994380981296e-04 -1.0118549840389100e-02 0.0000000000000000e+00  1.0711464273604037e-04 -8.8411374435789433e-03 0.0000000000000000e+00  1.0346827897494065e-04 -9.4827907916352969e-03 0.0000000000000000e+00  -2.3426223025512749e-04 -5.0525075802560380e-03 0.0000000000000000e+00  1.2434780718236028e-04 -6.8765154492448520e-03 0.0000000000000000e+00  -2.3393464188624800e-04 -3.4557846619884241e-03 0.0000000000000000e+00  -2.6449008801264495e-04 -4.6024979860463840e-03 0.0000000000000000e+00  1.0556934407625156e-04 -1.1155070663913377e-02 0.0000000000000000e+00  -2.3323597949744830e-04 -3.0351567442158060e-03 0.0000000000000000e+00  7.1335234127716218e-05 -1.0741900770086956e-02 0.0000000000000000e+00  -1.4636877695277877e-04 -1.0757682066120772e-03 0.0000000000000000e+00  -1.3296930217454557e-04 -7.8896351066348866e-04 0.0000000000000000e+00  -2.7318594528754665e-04 -1.2806867122257551e-02 0.0000000000000000e+00  -2.8317462746961714e-04 -1.2420924445111109e-02 0.0000000000000000e+00  5.9364268544971284e-05 -9.9107497944854305e-03 0.0000000000000000e+00  6.1484407599039762e-05 -9.2731169706894608e-03 0.0000000000000000e+00  8.2191387252488282e-05 -7.9700970380043989e-03 0.0000000000000000e+00  6.8831855226010282e-05 -1.0536962767142126e-02 0.0000000000000000e+00  6.5242993635832342e-05 -8.6291943890115467e-03 0.0000000000000000e+00  9.2958611938259735e-05 -7.3109802824723380e-03 0.0000000000000000e+00  -2.3436446872771716e-04 -5.2749169174685683e-03 0.0000000000000000e+00  1.5835509599816750e-04 -1.6229169462756608e-03 0.0000000000000000e+00  -2.8802452345745013e-04 -1.1774746944252210e-02 0.0000000000000000e+00  -2.8364410919623950e-04 -1.1378127723332436e-02 0.0000000000000000e+00  1.6103663317734655e-04 -1.9881405328049987e-03 0.0000000000000000e+00  -2.5975220818888793e-