<?xml version="1.0"?>
<VTKFile type="UnstructuredGrid"  version="0.1"  >
<UnstructuredGrid>
<Piece  NumberOfPoints="439" NumberOfCells="725">
<Points>
<DataArray  type="Float64"  NumberOfComponents="3"  format="ascii">0.5771492858911745 0.08202020561731896 0  0.5856737196421309 0.1002961956420171 0  0.2489897949 0.21 0  0.2489897949 0.19 0  0.581411576384061 0.09115821719752283 0  0.2496355385699469 0.2060260530378829 0  0.249959460510575 0.2020130349814059 0  0.2499594605105767 0.1979869650186357 0  0.24963553856995 0.1939739469621422 0  0.2540705862120917 0.2098808787086076 0  0.2591650653086164 0.2097494918870642 0  0.2642576626136214 0.2095817569324876 0  0.2693399523552504 0.2093010555186441 0  0.2744124418283884 0.208958799124739 0  0.2794866279524546 0.2085296120436677 0  0.2845434820547467 0.2080550167306193 0  0.2895819200505281 0.2075009266129806 0  0.2946164499100729 0.2068835901083481 0  0.2996365934170676 0.2062032712122216 0  0.3046550057891289 0.205437513553833 0  0.3096708797754774 0.204657943523174 0  0.3146563072353205 0.2037837342865887 0  0.3196546683083278 0.2028567237952393 0  0.3246197120711951 0.2018842568334656 0  0.3295788425003028 0.2008417632241868 0  0.3345243495561135 0.1997596433178678 0  0.3394528489630323 0.198609962121313 0  0.344365563185167 0.1974325656810006 0  0.349265581952527 0.1961969663516342 0  0.3541501854716909 0.1949213413591201 0  0.3590181604488982 0.1936060175009556 0  0.3638782374949743 0.192223794042502 0  0.3687360254368473 0.1908314197243009 0  0.3735689666880177 0.1893804151016463 0  0.3783882882212212 0.1879047574363811 0  0.3831943057676941 0.1863840992950372 0  0.3879865394013988 0.1848311551136467 0  0.3927628380042584 0.1832475928568713 0  0.3975297481533917 0.1816119510665143 0  0.4022946484235849 0.1799711088918433 0  0.4070324903922887 0.1782867855077596 0  0.4117611787346455 0.1765658955592952 0  0.4164862688711169 0.1748364712571032 0  0.4211875458301941 0.1730680375180595 0  0.4258887163220993 0.1712780827823433 0  0.4305694013265605 0.1694656081716057 0  0.4352460631130273 0.1676243511679829 0  0.4399066347442738 0.1657685743864254 0  0.4445549536564633 0.163888783203703 0  0.4491967751697146 0.1619913051530902 0  0.4538292859666097 0.1600738535570628 0  0.4584477974046291 0.1581397972831821 0  0.4630607315003135 0.1561900921333872 0  0.4676647504581581 0.1542229707471148 0  0.4722566204414312 0.1522418280448956 0  0.4768429087128437 0.1502478071598618 0  0.4814216744089184 0.1482392650565526 0  0.4859908899085083 0.1462200073097253 0  0.4905556321182627 0.1441903358568363 0  0.495114537746413 0.142149188100736 0  0.499665983535818 0.140099446990275 0  0.5042141839419274 0.1380417676626061 0  0.5087580261672556 0.1359753405507452 0  0.5132964197179736 0.1339025190438701 0  0.5178329338348799 0.1318236978833655 0  0.522366420858062 0.1297388408131497 0  0.5268967744425378 0.1276494042145344 0  0.531424382458813 0.1255565848368822 0  0.535949664109574 0.1234594768145864 0  0.5404739817112318 0.1213588911669153 0  0.5449977231927452 0.1192579951097134 0  0.5495194987666179 0.117153665140319 0  0.5540412634698116 0.1150482321840088 0  0.5585616570851636 0.1129418154657925 0  0.5630813745506437 0.1108342713510227 0  0.5676006529748313 0.1087267497749718 0  0.5721193554546423 0.106618878555985 0  0.5766377255809292 0.1045110022222185 0  0.5811558358148806 0.1024035603658632 0  0.5726317090477403 0.08412766619571899 0  0.5681141816425629 0.08623543602121479 0  0.563596773800335 0.08834350862316696 0  0.5590797469640274 0.09045165866850849 0  0.5545632049836392 0.0925594731753825 0  0.5500471525434636 0.09466712337435056 0  0.5455319965478523 0.0967734425393611 0  0.5410181975103573 0.0988784045710603 0  0.5365046077741416 0.1009820019278918 0  0.5319923207583035 0.1030822911732608 0  0.5274808821805185 0.1051806245166957 0  0.5229694494095598 0.1072743849117328 0  0.5184594057764457 0.1093622654665662 0  0.5139506062504463 0.1114485950555624 0  0.5094405555763546 0.1135268521691078 0  0.5049313628171579 0.1155956506628436 0  0.5004232995783978 0.1176618055665972 0  0.4959115379417045 0.1197165655428736 0  0.4913996777187434 0.1217586700220586 0  0.486888853252089 0.1237971500732946 0  0.4823715914366722 0.1258209025355707 0  0.4778529095919851 0.1278285744539383 0  0.4733350716307428 0.1298316969703522 0  0.4688078406833089 0.1318169160696263 0  0.4642779184442763 0.1337823784293709 0  0.4597476470698449 0.1357405897532182 0  0.4552087405904269 0.1376801343698754 0  0.4506646576031674 0.1395955896307901 0  0.4461195498469149 0.1415063077710169 0  0.4415593334384409 0.1433932836135886 0  0.436996859747039 0.1452499490037052 0  0.4324345564310042 0.1470996832279256 0  0.4278591738681144 0.1489197626702305 0  0.4232768829187276 0.1507253353848803 0  0.4186879573517614 0.1525052637973973 0  0.4140877036717949 0.154254473476489 0  0.4094897279582185 0.1559852178941899 0  0.4048788630314951 0.1576851795286452 0  0.400266042745964 0.1593576926252271 0  0.3956477257294253 0.1609983807339078 0  0.3910191168532462 0.1626062018391715 0  0.3863774472368372 0.1641902922772752 0  0.3817258921137242 0.1657369841726747 0  0.3770841150713924 0.1672534256628931 0  0.3724188584602544 0.1687305573156238 0  0.3677588863096747 0.1701630215490108 0  0.3630795959660503 0.1715671523598755 0  0.3583955898820999 0.172921433600144 0  0.3536978408163252 0.1742470681674871 0  0.3489892651166723 0.175524942376969 0  0.3442945357934947 0.17676663029982 0  0.3395730570590037 0.1779608449012086 0  0.3348625367249781 0.1790991786232451 0  0.3301237721153137 0.1801989225145105 0  0.3253828085750123 0.1812280350701631 0  0.3206457693331753 0.1822411582611079 0  0.3158898789928197 0.1831787624299165 0  0.3111540435259231 0.1840643962229013 0  0.3063885897169528 0.1849002057374625 0  0.3016230456116787 0.1856607479734748 0  0.296847268773355 0.1863799154452573 0  0.2920637991378789 0.1870266525492949 0  0.2872994843404088 0.187623586569874 0  0.2825045950221313 0.1881543835100749 0  0.2777328739508922 0.1886185339145185 0  0.2729379685241348 0.1890041024128136 0  0.2681629308360327 0.1893223303384883 0  0.2633714672536875 0.1895902405014472 0  0.2585775352160454 0.1897774905631199 0  0.2537848623153918 0.1898728540902679 0  0.5792805277895088 0.08658917539822115 0  0.5835426064999114 0.09572719330901563 0  0.2589876113361499 0.2004307757013331 0  0.5294563823439902 0.1153737350467574 0  0.5523751285246778 0.104673192934904 0  0.2774735800210697 0.1995733935106638 0  0.5026253878888789 0.1276193387098264 0  0.5161935467296856 0.1214003255742291 0  0.2942858747477823 0.1962108038540668 0  0.5654788106834004 0.09808345291775931 0  0.3101099961936564 0.1944736720976087 0  0.3363944737049268 0.1899632600389515 0  0.4890348040664472 0.1337650721977361 0  0.353984758750849 0.1846328419099093 0  0.4754079739324723 0.1398153291925519 0  0.3689035446126484 0.1803853869127878 0  0.3872328591434323 0.1745459997000855 0  0.4612475077540631 0.1455605475158945 0  0.4476871526900084 0.1517653643156481 0  0.4010114370078749 0.1699143617921984 0  0.4153297415202536 0.1645766063153342 0  0.4332845326240412 0.1576083522390676 0  0.3198026146904757 0.1927193872838775 0  0.5433972397869442 0.1088818062407273 0  0.4232793301905346 0.1613836620934594 0  0.3457559920172118 0.1869651694367793 0  0.3791447888066879 0.1773487670843856 0  0.285987070245333 0.1979530342233077 0  0.572551010845778 0.09333904551861259 0  0.2680641618252757 0.2011341424503604 0  0.4554425156629943 0.1509783800520812 0  0.4828444795011509 0.1391105106101978 0  0.4964676214646169 0.133006538658249 0  0.3935564208280915 0.1700157122997404 0  0.4691743182701238 0.1451092817971637 0  0.5100577067293609 0.1268195984579032 0  0.4416369523944562 0.1566943350112932 0  0.5236276247333794 0.1205710175890674 0  0.4075633186406997 0.1650376685772694 0  0.3605346489598009 0.1804593771306982 0  0.3028155151974118 0.1934071496993755 0  0.5578640810867468 0.09964194241118807 0  0.5349228958364276 0.1096444261031009 0  0.3281925047676087 0.1939031701100739 0  0.5359012585470709 0.1166452831929883 0  0.3287728407533653 0.1868812023059326 0  0.5230459546202201 0.1140434568466455 0  0.5094994537581385 0.1202936146640313 0  0.4959424006443641 0.1264809317865016 0  0.5624741633657543 0.1043046098324132 0  0.3015602871115844 0.199795106092442 0  0.4687483724738872 0.1385788650954292 0  0.4823632946636615 0.1325836166214993 0  0.3934586888551156 0.1765509974282745 0  0.3600881339269319 0.1869711422444399 0  0.4510321630500094 0.146148414865165 0  0.4413605135338776 0.1501543608857251 0  0.4075921747842379 0.1715771028519658 0  0.255720306159597 0.1960338761688346 0  0.2550617491902738 0.203402999701698 0  0.431026132910648 0.1625932789931242 0  0.3715314567021542 0.1755992903460792 0  0.3388136355538173 0.1844438000735422 0  0.2808686548614733 0.1944719967673361 0  0.2906905724722998 0.1934168862834947 0  0.4215522909917181 0.1664574122036754 0  0.3480256247575103 0.182118938931893 0  0.3811275275531193 0.1723735934965822 0  0.3155402699266461 0.1895985573259623 0  0.5484351799407892 0.1107481704423718 0  0.5454207079117458 0.1035851601268687 0  0.3165552989477954 0.1972635482404928 0  0.2707891134108914 0.1952207897880785 0  0.5718196242438498 0.1008875104859477 0  0.427849718757338 0.154862145852798 0  0.4183498621568488 0.1589918159143447 0  0.340503836817141 0.1930524533828396 0  0.2812587049727577 0.2031978576399343 0  0.2918768721734474 0.2020319113808146 0  0.3741036010729784 0.1835316302898339 0  0.3500859395320807 0.1910288322487722 0  0.3837073330064071 0.1811633283121534 0  0.2646272766140388 0.195818600573156 0  0.5779478670963403 0.09727059519678354 0  0.5175238266368393 0.1160636016143436 0  0.5039754987777056 0.1222909264149229 0  0.3074282446259782 0.1993468517452748 0  0.4904132560681622 0.128446750378349 0  0.5573637732277258 0.1072135118334872 0  0.4768243949261002 0.1345086911469921 0  0.4632339805387458 0.1404327939051172 0  0.365873454237978
[...]
<PointData  Vectors="d"> 
<DataArray  type="Float64"  Name="d"  NumberOfComponents="3" format="ascii">-2.2850714108825415e-02 -1.0797979438268109e-01 0.0000000000000000e+00  -1.4326280357869162e-02 -1.0970380435798294e-01 0.0000000000000000e+00  0.0000000000000000e+00 0.0000000000000000e+00 0.0000000000000000e+00  0.0000000000000000e+00 0.0000000000000000e+00 0.0000000000000000e+00  -1.8588423615939043e-02 -1.0884178280247722e-01 0.0000000000000000e+00  0.0000000000000000e+00 0.0000000000000000e+00 0.0000000000000000e+00  0.0000000000000000e+00 0.0000000000000000e+00 0.0000000000000000e+00  0.0000000000000000e+00 0.0000000000000000e+00 0.0000000000000000e+00  0.0000000000000000e+00 0.0000000000000000e+00 0.0000000000000000e+00  1.3698560646241106e-04 -1.1912129139240798e-04 0.0000000000000000e+00  2.8765899736212604e-04 -2.5050811293578489e-04 0.0000000000000000e+00  4.3645059672931663e-04 -4.1824306751238002e-04 0.0000000000000000e+00  5.7493463272044237e-04 -6.9894448135588458e-04 0.0000000000000000e+00  7.0361840023150932e-04 -1.0412008752610480e-03 0.0000000000000000e+00  8.3399881867937393e-04 -1.4703879563322396e-03 0.0000000000000000e+00  9.4704721535303251e-04 -1.9449832693806291e-03 0.0000000000000000e+00  1.0416795055115178e-03 -2.4990733870193654e-03 0.0000000000000000e+00  1.1324036594206320e-03 -3.1164098916518839e-03 0.0000000000000000e+00  1.2087414607967787e-03 -3.7967287877784164e-03 0.0000000000000000e+00  1.2833481272291520e-03 -4.5624864461670678e-03 0.0000000000000000e+00  1.3554164079593669e-03 -5.3420564768259671e-03 0.0000000000000000e+00  1.3970381621838620e-03 -6.2162657134112852e-03 0.0000000000000000e+00  1.4515935295729321e-03 -7.1432762047607045e-03 0.0000000000000000e+00  1.4728315868219159e-03 -8.1157431665344094e-03 0.0000000000000000e+00  1.4881563103111347e-03 -9.1582367758132142e-03 0.0000000000000000e+00  1.4898576604927111e-03 -1.0240356682132188e-02 0.0000000000000000e+00  1.4745513618038978e-03 -1.1390037878686960e-02 0.0000000000000000e+00  1.4434598783094989e-03 -1.2567434318999452e-02 0.0000000000000000e+00  1.3996729400509614e-03 -1.3803033648365753e-02 0.0000000000000000e+00  1.3404707535964100e-03 -1.5078658640879868e-02 0.0000000000000000e+00  1.2646400251854482e-03 -1.6393982499044463e-02 0.0000000000000000e+00  1.1809113656431657e-03 -1.7776205957497970e-02 0.0000000000000000e+00  1.0948936018977944e-03 -1.9168580275699065e-02 0.0000000000000000e+00  9.8402914743891978e-04 -2.0619584898353669e-02 0.0000000000000000e+00  8.5954497503351861e-04 -2.2095242563618913e-02 0.0000000000000000e+00  7.2175681588198702e-04 -2.3615900704962847e-02 0.0000000000000000e+00  5.7018474396497074e-04 -2.5168844886353289e-02 0.0000000000000000e+00  4.0267764119529103e-04 -2.6752407143128727e-02 0.0000000000000000e+00  2.2578208472112980e-04 -2.8388048933485684e-02 0.0000000000000000e+00  4.6876649286315586e-05 -3.0028891108156781e-02 0.0000000000000000e+00  -1.5908708762207057e-04 -3.1713214492240425e-02 0.0000000000000000e+00  -3.7420445088561248e-04 -3.3434104440704750e-02 0.0000000000000000e+00  -5.9292002003485413e-04 -3.5163528742896792e-02 0.0000000000000000e+00  -8.3544876656950213e-04 -3.6931962481940549e-02 0.0000000000000000e+00  -1.0780839802926397e-03 -3.8721917217656616e-02 0.0000000000000000e+00  -1.3412046814646826e-03 -4.0534391828394252e-02 0.0000000000000000e+00  -1.6083486006499695e-03 -4.2375648832017082e-02 0.0000000000000000e+00  -1.8915826750590559e-03 -4.4231425613574543e-02 0.0000000000000000e+00  -2.1870694685335495e-03 -4.6111216796296935e-02 0.0000000000000000e+00  -2.4890536609299429e-03 -4.8008694846909804e-02 0.0000000000000000e+00  -2.8003485696767908e-03 -4.9926146442937205e-02 0.0000000000000000e+00  -3.1256428372869035e-03 -5.1860202716817828e-02 0.0000000000000000e+00  -3.4565144472530583e-03 -5.3809907866612827e-02 0.0000000000000000e+00  -3.7963011950416740e-03 -5.5777029252885253e-02 0.0000000000000000e+00  -4.1482369174355143e-03 -5.7758171955104451e-02 0.0000000000000000e+00  -4.5057543516696195e-03 -5.9752192840138177e-02 0.0000000000000000e+00  -4.8707943612576014e-03 -6.1760734943447408e-02 0.0000000000000000e+00  -5.2453845672983477e-03 -6.3779992690274664e-02 0.0000000000000000e+00  -5.6244480631983101e-03 -6.5809664143163651e-02 0.0000000000000000e+00  -6.0093481406765558e-03 -6.7850811899263896e-02 0.0000000000000000e+00  -6.4017080569310839e-03 -6.9900553009725003e-02 0.0000000000000000e+00  -6.7973133564601376e-03 -7.1958232337393915e-02 0.0000000000000000e+00  -7.1972768367481116e-03 -7.4024659449254793e-02 0.0000000000000000e+00  -7.6026889916678475e-03 -7.6097480956129948e-02 0.0000000000000000e+00  -8.0099805804204043e-03 -7.8176302116634483e-02 0.0000000000000000e+00  -8.4202992628769988e-03 -8.0261159186850353e-02 0.0000000000000000e+00  -8.8337513840608308e-03 -8.2350595785465650e-02 0.0000000000000000e+00  -9.2499490734235627e-03 -8.4443415163117805e-02 0.0000000000000000e+00  -9.6684731282789971e-03 -8.6540523185413526e-02 0.0000000000000000e+00  -1.0087961232259050e-02 -8.8641108833084778e-02 0.0000000000000000e+00  -1.0508025456400550e-02 -9.0742004890286526e-02 0.0000000000000000e+00  -1.0930055588170636e-02 -9.2846334859681051e-02 0.0000000000000000e+00  -1.1352096590636527e-02 -9.4951767815991170e-02 0.0000000000000000e+00  -1.1775508680947825e-02 -9.7058184534207503e-02 0.0000000000000000e+00  -1.2199596921102373e-02 -9.9165728648977339e-02 0.0000000000000000e+00  -1.2624124202552087e-02 -1.0127325022502826e-01 0.0000000000000000e+00  -1.3049227428391746e-02 -1.0338112144401494e-01 0.0000000000000000e+00  -1.3474663007751502e-02 -1.0548899777778155e-01 0.0000000000000000e+00  -1.3900358479459928e-02 -1.0759643963413683e-01 0.0000000000000000e+00  -2.2424485246642759e-02 -1.0587233380428097e-01 0.0000000000000000e+00  -2.1998206946195187e-02 -1.0376456397878521e-01 0.0000000000000000e+00  -2.1571809082784211e-02 -1.0165649137683302e-01 0.0000000000000000e+00  -2.1145030213445371e-02 -9.9548341331491499e-02 0.0000000000000000e+00  -2.0717766488212202e-02 -9.7440526824617513e-02 0.0000000000000000e+00  -2.0290013222767540e-02 -9.5332876625649488e-02 0.0000000000000000e+00  -1.9861363512765767e-02 -9.3226557460638931e-02 0.0000000000000000e+00  -1.9431356844631473e-02 -9.1121595428939689e-02 0.0000000000000000e+00  -1.9001140875216357e-02 -8.9017998072108251e-02 0.0000000000000000e+00  -1.8569622185400054e-02 -8.6917708826739229e-02 0.0000000000000000e+00  -1.8137255057585816e-02 -8.4819375483304274e-02 0.0000000000000000e+00  -1.7704882122945294e-02 -8.2725615088267215e-02 0.0000000000000000e+00  -1.7271120050450367e-02 -8.0637734533433855e-02 0.0000000000000000e+00  -1.6836113870816686e-02 -7.8551404944437561e-02 0.0000000000000000e+00  -1.6402358839308198e-02 -7.6473147830892166e-02 0.0000000000000000e+00  -1.5967745892866755e-02 -7.4404349337156367e-02 0.0000000000000000e+00  -1.5532003426024055e-02 -7.2338194433402850e-02 0.0000000000000000e+00  -1.5099959357118104e-02 -7.0283434457126384e-02 0.0000000000000000e+00  -1.4668013874474299e-02 -6.8241329977941440e-02 0.0000000000000000e+00  -1.4235032635491468e-02 -6.6202849926705415e-02 0.0000000000000000e+00  -1.3808488745299830e-02 -6.4179097464429305e-02 0.0000000000000000e+00  -1.3383364884368009e-02 -6.2171425546061677e-02 0.0000000000000000e+00  -1.2957397139991462e-02 -6.0168303029647756e-02 0.0000000000000000e+00  -1.2540822381795555e-02 -5.8183083930373782e-02 0.0000000000000000e+00  -1.2126938915220266e-02 -5.6217621570629019e-02 0.0000000000000000e+00  -1.1713404584023295e-02 -5.4259410246781811e-02 0.0000000000000000e+00  -1.1308505357828534e-02 -5.2319865630124543e-02 0.0000000000000000e+00  -1.0908782639467568e-02 -5.0404410369209902e-02 0.0000000000000000e+00  -1.0510084690095386e-02 -4.8493692228983074e-02 0.0000000000000000e+00  -1.0126495392939892e-02 -4.6606716386411402e-02 0.0000000000000000e+00  -9.7451633787326176e-03 -4.4750050996294720e-02 0.0000000000000000e+00  -9.3636609891423160e-03 -4.2900316772074398e-02 0.0000000000000000e+00  -8.9952378464152327e-03 -4.1080237329769571e-02 0.0000000000000000e+00  -8.6337230901855251e-03 -3.9274664615119692e-02 0.0000000000000000e+00  -8.2788429515252646e-03 -3.7494736202602609e-02 0.0000000000000000e+00  -7.9352909258532667e-03 -3.5745526523511068e-02 0.0000000000000000e+00  -7.5894609337871415e-03 -3.4014782105810104e-02 0.0000000000000000e+00  -7.2565201548643017e-03 -3.2314820471354797e-02 0.0000000000000000e+00  -6.9255347347354926e-03 -3.0642307374772908e-02 0.0000000000000000e+00  -6.6000460456224919e-03 -2.9001619266092172e-02 0.0000000000000000e+00  -6.2848492161439997e-03 -2.7393798160828493e-02 0.0000000000000000e+00  -5.9827131269175925e-03 -2.5809707722724829e-02 0.0000000000000000e+00  -5.6904625443841266e-03 -2.4263015827325284e-02 0.0000000000000000e+00  -5.3884338810898267e-03 -2.2746574337106910e-02 0.0000000000000000e+00  -5.1098847865714923e-03 -2.1269442684376222e-02 0.0000000000000000e+00  -4.8260512315025754e-03 -1.9836978450989220e-02 0.0000000000000000e+00  -4.5615358694581941e-03 -1.8432847640124473e-02 0.0000000000000000e+00  -4.3017362477615496e-03 -1.7078566399856009e-02 0.0000000000000000e+00  -4.0556796078856545e-03 -1.5752931832512918e-02 0.0000000000000000e+00  -3.8204496019166503e-03 -1.4475057623031000e-02 0.0000000000000000e+00  -3.5713732194362652e-03 -1.3233369700180051e-02 0.0000000000000000e+00  -3.3490462482882615e-03 -1.2039155098791398e-02 0.0000000000000000e+00  -3.1157608766754614e-03 -1.0900821376754924e-02 0.0000000000000000e+00  -2.9107197807013998e-03 -9.8010774854895202e-03 0.0000000000000000e+00  -2.7078776153626888e-03 -8.7719649298368882e-03 0.0000000000000000e+00  -2.5011111515418454e-03 -7.7588417388921192e-03 0.0000000000000000e+00  -2.3131957862393081e-03 -6.8212375700834049e-03 0.0000000000000000e+00  -2.1052255474781757e-03 -5.9356037770988013e-03 0.0000000000000000e+00  -1.9268736508053276e-03 -5.0997942625374635e-03 0.0000000000000000e+00  -1.7486120504408989e-03 -4.3392520265251189e-03 0.0000000000000000e+00  -1.5805831831262804e-03 -3.6200845547427244e-03 0.0000000000000000e+00  -1.4202471129640777e-03 -2.9733474507050769e-03 0.0000000000000000e+00  -1.2407562047785728e-03 -2.3764134301260398e-03 0.0000000000000000e+00  -1.0918398173981564e-03 -1.8456164899250649e-03 0.0000000000000000e+00  -9.1975518297942747e-04 -1.3814660854814817e-03 0.0000000000000000e+00  -7.7085490408954993e-04 -9.9589758718640121e-04 0.0000000000000000e+00  -6.0208688655333611e-04 -6.7766966151175422e-04 0.0000000000000000e+00  -4.4974476326012526e-04 -4.0975949855275273e-04 0.0000000000000000e+00  -2.9987109526377446e-04 -2.2250943688000826e-04 0.0000000000000000e+00  -1.4873829026617027e-04 -1.2714590973206993e-04 0.0000000000000000e+00  -2.0719472210491245e-02 -1.0841082460175715e-01 0.0000000000000000e+00  -1.6457393500088666e-02 -1.0927280669095725e-01 0.0000000000000000e+00  1.4184804500623151e-05 -1.2161364150726283e-04 0.0000000000000000e+00  -1.3689852041317348e-02 -8.4626264953211572e-02 0.0000000000000000e+00  -1.5864660952138111e-02 -9.5297265645994667e-02 0.0000000000000000e+00  2.2187309267293903e-05 -1.2207984315288360e-03 0.0000000000000000e+00  -1.1224195488018080e-02 -7.2283003939265456e-02 0.0000000000000000e+00  -1.2487453764052452e-02 -7.8502017074867758e-02 0.0000000000000000e+00  -2.2502045798233796e-04 -3.0803869864718053e-03 0.0000000000000000e+00  -1.7299272455092045e-02 -1.0145952718257560e-01 0.0000000000000000e+00  -3.0284346326917754e-04 -5.4967864832891258e-03 0.0000000000000000e+00  -6.0570183692831739e-04 -1.0866201204445224e-02 0.0000000000000000e+00  -9.9833621935986987e-03 -6.6137270451354063e-02 0.0000000000000000e+00  -1.2968588200553755e-03 -1.5367158090151553e-02 0.0000000000000000e+00  -8.7787752107202650e-03 -6.0087013456533028e-02 0.0000000000000000e+00  -1.8338267779067197e-03 -1.9628850782581083e-02 0.0000000000000000e+00  -2.6553983668172244e-03 -2.5454000299997330e-02 0.0000000000000000e+00  -7.7382472952103295e-03 -5.3981124909774990e-02 0.0000000000000000e+00  -6.4705789941881930e-03 -4.8234635684261618e-02 0.0000000000000000e+00  -3.3420543939581696e-03 -3.0183295558725960e-02 0.0000000000000000e+00  -4.2213502237032768e-03 -3.5423393684771577e-02 0.0000000000000000e+00  -5.4174452404100633e-03 -4.2377410065609605e-02 0.0000000000000000e+00  -4.4466033519464400e-04 -7.2894969307623608e-03 0.0000000000000000e+00  -1.5008114321140844e-02 -9.1109309544630410e-02 0.0000000000000000e+00  -4.7873844981787981e-03 -3.8465242727364721e-02 0.0000000000000000e+00  -1.0100026093356081e-03 -1.3185925742658160e-02 0.0000000000000000e+00  -2.2278457592029080e-03 -2.2802328095066420e-02 0.0000000000000000e+00  -8.1267446876906701e-05 -2.0885103473105141e-03 0.0000000000000000e+00  -1.8571370332341484e-02 -1.0490587041626179e-01 0.0000000000000000e+00  7.4845679413038761e-05 -5.4098319636863314e-04 0.0000000000000000e+00  -6.1309245796336287e-03 -5.1271983276719134e-02 0.0000000000000000e+00  -8.3917949751943915e-03 -6.3139852718611306e-02 0.0000000000000000e+00  -9.6000701285814723e-03 -6.9243824670562809e-02 0.0000000000000000e+00  -3.7475452405859215e-03 -2.7733924371456057e-02 0.0000000000000000e+00  -7.2305390893658171e-03 -5.7141081531641436e-02 0.0000000000000000e+00  -1.0841401980684631e-02 -7.5430764870915226e-02 0.0000000000000000e+00  -5.1050707313093904e-03 -4.5556028317506783e-02 0.0000000000000000e+00  -1.2102901093505296e-02 -8.1679345739752371e-02 0.0000000000000000e+00  -4.5720645448318947e-03 -3.2711968093928269e-02 0.0000000000000000e+00  -2.1626771695343857e-03 -1.7290259540493701e-02 0.0000000000000000e+00  -5.5614246448434739e-04 -4.3424869718113740e-03 0.0000000000000000e+00  -1.7416890385076128e-02 -9.8107694259962228e-02 0.0000000000000000e+00  -1.5536960082628396e-02 -8.7484052370665727e-02 0.0000000000000000e+00  -2.6844707548141528e-07 -8.9683514161667793e-03 0.0000000000000000e+00  -1.2516643502675224e-02 -8.7195038376487968e-02 0.0000000000000000e+00  -1.4618863306334886e-03 -9.2784761246165436e-03 0.0000000000000000e+00  -1.4875130603591304e-02 -8.2081724817765545e-02 0.0000000000000000e+00  -1.3590214348826610e-02 -7.5831567000374439e-02 0.0000000000000000e+00  -1.2315850345758057e-02 -6.9644249877908154e-02 0.0000000000000000e+00  -1.4997367502954932e-02 -9.9570208503175481e-02 0.0000000000000000e+00  3.7918884662956797e-04 -4.0797122431517523e-03 0.0000000000000000e+00  -9.8470442825239150e-03 -5.7546316568974847e-02 0.0000000000000000e+00  -1.1063539209605584e-02 -6.3541565042906936e-02 0.0000000000000000e+00  -1.6547178166474083e-03 -2.7323820907322060e-02 0.0000000000000000e+00  -4.1863280547988234e-04 -1.6903676091155107e-02 0.0000000000000000e+00  -8.3507177957052141e-03 -4.9976766799234247e-02 0.0000000000000000e+00  -7.5720689888029696e-03 -4.5970820778675606e-02 0.0000000000000000e+00  -2.3526490043841355e-03 -3.2297715483633242e-02 0.0000000000000000e+00  -6.5993820600145198e-05 -5.1960856894822301e-05 0.0000000000000000e+00  4.7013159333981900e-05 -3.9643297413452698e-05 0.0000000000000000e+00  -3.7770147358209315e-03 -4.1180478771031252e-02 0.0000000000000000e+00  -3.1047449062558208e-03 -2.0626951889776101e-02 0.0000000000000000e+00  -1.8122010326132186e-03 -1.1602992120446803e-02 0.0000000000000000e+00  -4.3151325751001739e-04 -1.5747954267140065e-03 0.0000000000000000e+00  -5.7806627168946348e-04 -2.6647465814334864e-03 0.0000000000000000e+00  -3.1182425902711716e-03 -3.7495795602279045e-02 0.0000000000000000e+00  -2.1365509754027508e-03 -1.3927853262294768e-02 0.0000000000000000e+00  -3.6412881191501289e-03 -2.3673198697653743e-02 0.0000000000000000e+00  -1.0920986117097322e-03 -6.5609012374076518e-03 0.0000000000000000e+00  -1.3719821164551844e-02 -9.3033478817527354e-02 0.0000000000000000e+00  -1.7020679790231152e-02 -9.2491032234269077e-02 0.0000000000000000e+00  3.1579536448254284e-04 -6.6044075019763568e-03 0.0000000000000000e+00  -2.9960000987080612e-04 -7.4885454450534822e-04 0.0000000000000000e+00  -1.5481813396510596e-02 -1.0383527761713462e-01 0.0000000000000000e+00  -6.8182378869328869e-03 -4.0603000102453331e-02 0.0000000000000000e+00  -5.9797882509497798e-03 -3.6883882179561504e-02 0.0000000000000000e+00  2.4788573378871999e-04 -1.1741596646252654e-02 0.0000000000000000e+00  3.9021229666440997e-04 -1.5763841413312790e-03 0.0000000000000000e+00  4.6916885957508901e-04 -2.7490403262809440e-03 0.0000000000000000e+00  -6.6779153751481634e-04 -2.1003223755021460e-02 0.0000000000000000e+00  1.6429064219407975e-04 -1.4146509069858246e-02 0.0000000000000000e+00  -8.2095582282257185e-04 -2.4012013006482546e-02 0.0000000000000000e+00  -1.8720993146646738e-04 -3.9037372548146241e-04 0.0000000000000000e+00  -1.6376897269949054e-02 -1.0677094716213467e-01 0.0000000000000000e+00  -1.4573434408775239e-02 -7.9580908290743588e-02 0.0000000000000000e+00  -1.3290345151067071e-02 -7.3353583490162466e-02 0.0000000000000000e+00  4.3591906571250168e-04 -4.9999516419803013e-03 0.0000000000000000e+00  -1.2021170743764313e-02 -6.7197759526737399e-02 0.0000000000000000e+00  -1.4296530345709416e-02 -9.7133291553788942e-02 0.0000000000000000e+00  -1.0778614768973894e-02 -6.1135818758091043e-02 0.0000000000000000e+00  -9.5812169908805929e-03 -5.5207452985872173e-02 0.0000000000000000e+00  -4.5672341477569374e-04 -1.8544327141709026e-02 0.0000000000000000e+00  -8.9788211293869592e-03 -5.2193688650477084e-02 0.0000000000000000e+00  -1.7652298603288196e-03 -2.9268351978804237e-02 0.0000000000000000e+00  -7.3461583878155334e-03 -4.3742885497550843e-02 0.0000000000000000e+00  -2.4898252722430712e-03 -3.4348946197421612e-02 0.0000000000000000e+00  -1.9261417421379264e-02 -1.0271720323801004e-01 0.0000000000000000e+00  -1.2757105522922764e-02 -8.9686624974119528e-02 0.0000000000000000e+00  -1.4206858545983423e-03 -8.0718375301946452e-03 0.0000000000000000e+00  3.1100785355076384e-04 -8.2319271772145230e-04 0.0000000000000000e+00  1.6592261492206155e-04 -3.1278080615495813e-04 0.0000000000000000e+00  -4.8676516500672689e-03 -4.9587288001102646e-02 0.0000000000000000e+00  -5.6304702498815922e-03 -3.4197428190540183e-02 0.0000000000000000e+00  -5.9192464881309822e-03 -5.5419551259008215e-02 0.0000000000000000e+00  -9.4770303224906184e-03 -7.3619012067839509e-02 0.0000000000000000e+00  -7.0793337490040699e-03 -6.1373884593309273e-02 0.0000000000000000e+00  -8.2576863109427613e-03 -6.7452358156556091e-02 0.0000000000000000e+00  -4.5506153393388201e-03 -2.9292460027163042e-02 0.0000000000000000e+00  -3.9634739679383756e-03 -4.3945192394737140e-02 0.0000000000000000e+00  -2.9659831787735109e-03 -1.8521829151352597e-02 0.0000000000000000e+00  -4.2670968984069484e-03 -2.6084371378801766e-02 0.0000000000000000e+00  -1.1496694749574057e-02 -8.3909341977998500e-02 0.0000000000000000e+00  -2.6206268253002995e-03 -1.5928869678339112e-02 0.0000000000000000e+00  -1.1002013193525789e-02 -7.9714565309173382e-02 0.0000000000000000e+00  -9.9643500670342660e-04 -5.0558098253547113e-03 0.0000000000000000e+00  -8.2283721788862227e-04 -3.6261888449146099e-03 0.0000000000000000e+00  -1.8735121579175919e-02 -9.9790048404678783e-02 0.0000000000000000e+00  -1.8027682167910893e-02 -9.5863345399889888e-02 0.0000000000000000e+00  -9.4846490690074121e-03 -7.1505613704479540e-02 0.0000000000000000e+00  -8.2709236112540451e-03 -6.5367335133716287e-02 0.0000000000000000e+00  -5.8756076763311635e-03 -5.3353105900559236e-02 0.0000000000000000e+00  -1.0616811384547089e-02 -7.7675693297946727e-02 0.0000000000000000e+00  -7.1014087811803548e-03 -5.9325406607228293e-02 0.0000000000000000e+00  -4.8092442956388232e-03 -4.7586466552721945e-02 0.0000000000000000e+00  -4.8073631765356483e-03 -3.0911254487677061e-02 0.0000000000000000e+00  4.2476742887451830e-04 -8.0343399225706689e-03 0.0000000000000000e+00  -1.6720542441563860e-02 -8.9328587502682105e-02 0.0000000000000000e+00  -1.5844653441800999e-02 -8.5351053490288695e-02 0.0000000000000000e+00  3.042688505