<?xml version="1.0"?>
<VTKFile type="UnstructuredGrid"  version="0.1"  >
<UnstructuredGrid>
<Piece  NumberOfPoints="439" NumberOfCells="725">
<Points>
<DataArray  type="Float64"  NumberOfComponents="3"  format="ascii">0.565943022966598 0.05819628562808384 0  0.5760939554462016 0.07564489337087277 0  0.2489897949 0.21 0  0.2489897949 0.19 0  0.5710185113107434 0.06692069823383411 0  0.2496355385699469 0.2060260530378829 0  0.249959460510575 0.2020130349814059 0  0.2499594605105767 0.1979869650186357 0  0.24963553856995 0.1939739469621422 0  0.2541147759118494 0.2098399986516065 0  0.259257207374988 0.2096616439080794 0  0.264396033005757 0.2094333293103019 0  0.2695181616829133 0.2090540868754464 0  0.2746247353359719 0.2085921951854561 0  0.2797293634902941 0.2080140923876645 0  0.2848085377488704 0.207375459017594 0  0.2898586463803494 0.2066324305222517 0  0.2948990462694271 0.2058058040902463 0  0.299915802615576 0.2048971764765149 0  0.3049229051766352 0.2038772825934746 0  0.3099249598342078 0.2028388106916227 0  0.3148786693498165 0.2016806865475149 0  0.3198426704172178 0.2004530773671327 0  0.324759085821286 0.1991700232110887 0  0.3296594247557948 0.197798654751198 0  0.3345373467401332 0.1963782263576786 0  0.339385234306801 0.1948746191113772 0  0.344209702955149 0.1933381357621423 0  0.3490106483309662 0.1917309809688806 0  0.3537871135267231 0.1900763313970474 0  0.3585379994425215 0.1883756563394955 0  0.3632707956604443 0.1865961697006828 0  0.3679988927991811 0.1848055411529321 0  0.3726898363583561 0.1829493483780437 0  0.377361554707215 0.1810672087375851 0  0.3820117821042971 0.17913603389161 0  0.3866417412397344 0.1771709083114303 0  0.3912498005677855 0.1751748708889134 0  0.3958400665546535 0.173124667945315 0  0.4004270232142376 0.1710694803009424 0  0.4049792570959318 0.1689725024209745 0  0.4095172434568712 0.1668392937084172 0  0.4140505472300798 0.1646982421809045 0  0.4185549761303014 0.1625207701201707 0  0.4230575878611071 0.1603222414262034 0  0.4275382503818131 0.1581040428740411 0  0.4320136942674593 0.1558587092943891 0  0.4364732365859164 0.1536011456544155 0  0.4409212990452048 0.1513217867327423 0  0.4453639291109311 0.1490271498026556 0  0.4497987707911731 0.1467151460810455 0  0.4542219315017191 0.1443887050156906 0  0.4586415072743969 0.1420493075627753 0  0.4630545983039321 0.1396949549397934 0  0.4674584272251466 0.137328552988942 0  0.4718585871816553 0.1349513972052825 0  0.4762534479585812 0.1325615542902129 0  0.4806407487737665 0.1301622950160317 0  0.4850244434643093 0.1277536750166002 0  0.4894033882356755 0.1253341973833879 0  0.4937753783422908 0.1229065209213539 0  0.4981436713499088 0.1204705360434823 0  0.5025073339809147 0.1180250180629417 0  0.5068644371824601 0.1155724657019686 0  0.5112181393224666 0.1131122377938994 0  0.5155673769037005 0.1106439337128124 0  0.5199114696623546 0.108168905747401 0  0.5242511885780176 0.1056890944792078 0  0.5285852234580967 0.1032027322927171 0  0.5329152483503706 0.1007093397114602 0  0.5372446137460659 0.09821461195075314 0  0.541568432891874 0.09571401108248362 0  0.5458911151418543 0.09320965934283931 0  0.5502101300611365 0.09070377868109067 0  0.5545264205319311 0.08819469257385178 0  0.5588419925117625 0.08568555680205024 0  0.5631554609505053 0.08317538835501724 0  0.5674683257513718 0.08066460408531 0  0.5717812821855887 0.07815467334976647 0  0.5616302524786468 0.06070529566295059 0  0.5573183756921113 0.06321427177742633 0  0.5530072145093025 0.0657234022955593 0  0.5486971333725847 0.06823177709936452 0  0.5443875321398313 0.07073841763796292 0  0.5400789807111244 0.07324394994162076 0  0.535770529494066 0.07574571185684907 0  0.5314630275899492 0.07824341428697155 0  0.52715463560215 0.08073810118897577 0  0.5228453341185331 0.08322604322712793 0  0.5185359091759415 0.08571003823764424 0  0.5142228669203067 0.08818701411885796 0  0.5099077355669754 0.09065466523212075 0  0.5055936167111665 0.09311966171096148 0  0.5012734969297129 0.09557505609340189 0  0.4969506419447124 0.09801934896150746 0  0.4926281929135409 0.1004606408164398 0  0.4882981557029207 0.1028909558801333 0  0.4839656913328448 0.105309446042643 0  0.4796334538531924 0.1077248270467985 0  0.475293324617551 0.1101277256737777 0  0.4709516032511769 0.1125174828219922 0  0.466610234241407 0.1149038690956432 0  0.4622610037491667 0.1172754894407628 0  0.4579111837675717 0.1196311509118774 0  0.4535614424575832 0.1219811746096676 0  0.449205839006819 0.1243151526102299 0  0.4448485840930678 0.1266282656800552 0  0.4404908950762578 0.1289373321677497 0  0.4361221928817371 0.1312241394285736 0  0.4317534922968496 0.1334824581290023 0  0.4273855283906983 0.1357339436631253 0  0.4230064966616045 0.1379564894170498 0  0.4186212257983773 0.1401641982432679 0  0.4142291840883423 0.1423461012090887 0  0.4098244276583655 0.1444968317877136 0  0.4054211072405378 0.146628164387669 0  0.4010022367303583 0.1487286246110271 0  0.3965789792088488 0.1508003274295891 0  0.3921472958388268 0.1528388240530964 0  0.387701641347658 0.1548432732227068 0  0.3832399729542161 0.1568239060686167 0  0.3787640291445965 0.1587653946722182 0  0.3742965851773563 0.1606727063247286 0  0.3697996717966395 0.1625386911842774 0  0.3653055830331818 0.1643534536714115 0  0.3607874058222251 0.1661377708226499 0  0.3562596144109493 0.1678637876727036 0  0.3517139258004195 0.1695573944000555 0  0.3471512000898991 0.171194369738263 0  0.3426026642690777 0.172785519228571 0  0.3380168452026878 0.1743205913179741 0  0.3334394385201702 0.1757849186693196 0  0.32882267724091 0.1772039696032336 0  0.3241958172652086 0.1785342929239652 0  0.3195725380999127 0.1798442564891526 0  0.3149178775639602 0.181061183932416 0  0.3102846627891828 0.1822103462369609 0  0.3056092794324501 0.1832996105998433 0  0.3009283258786415 0.1842927105726452 0  0.2962317266102257 0.1852340683745948 0  0.2915209152013213 0.1860825561574216 0  0.2868330621107719 0.1868655377694284 0  0.2821017304793038 0.1875641267071664 0  0.2773985531531085 0.1881746458753298 0  0.2726614596540234 0.1886827874226324 0  0.2679488836679754 0.189101892184474 0  0.2632130708866523 0.1894559482714847 0  0.2584724687946026 0.1897037256480547 0  0.2537326521321982 0.1898299099894994 0  0.5684808117261677 0.06255843124297455 0  0.5735560124680039 0.07128289191754343 0  0.258990014587597 0.200388050570941 0  0.5214050913036483 0.09570393326005736 0  0.5433034162353385 0.08301341878566888 0  0.2774570840561589 0.1991593669947571 0  0.4956748788298496 0.1102061213050878 0  0.5086933504038 0.1028536281907911 0  0.2941308854560612 0.1951882219678103 0  0.5557658924910723 0.07526492411078504 0  0.3098324826944472 0.1926729269676633 0  0.3357353032426579 0.186506455064848 0  0.4826192069948292 0.1174836438596008 0  0.3528295027934134 0.1798687400440115 0  0.4695270313962358 0.1246772024669578 0  0.367304161342195 0.1744200790819159 0  0.3850004514798571 0.1670291020694798 0  0.4559014967400727 0.1316287062996283 0  0.4429515865666964 0.1390001669191985 0  0.3982625267610737 0.1612073954255279 0  0.4119843308480093 0.1546261924811032 0  0.4291666313228678 0.1460945693980158 0  0.3193945951791817 0.1903581708182785 0  0.5347328944671221 0.08800885609243854 0  0.4195805230431593 0.1507424194859731 0  0.3448294403544174 0.1828314876573472 0  0.3772150572893547 0.1705221072091155 0  0.2859114343989551 0.1972532640332828 0  0.5623840681618586 0.06989595878289921 0  0.2680800020623058 0.2009478414841787 0  0.4505960534883385 0.1375306001957259 0  0.4768907582550997 0.1233389635614972 0  0.4899799809084137 0.1160987671034228 0  0.3908765657788335 0.1619723626818985 0  0.4637635359855553 0.1304892690264158 0  0.5030300107598729 0.1087798015858797 0  0.4373776143217442 0.1444379441265925 0  0.5160416448434426 0.1013902986385069 0  0.404324554738475 0.1557814546617851 0  0.3590006470435358 0.1751899093665212 0  0.3025058732994924 0.1919874900353935 0  0.5483192442136178 0.07750423532952483 0  0.5263521666909228 0.08951443834960264 0  0.3278300552004383 0.1909961499846145 0  0.5279442274344019 0.09641039446414099 0  0.3279449118853734 0.1839594272815558 0  0.5148944468145431 0.09493036340698069 0  0.5019153117215531 0.1023183516011192 0  0.488902505008883 0.1096350372083999 0  0.5533338089318308 0.08173949040159156 0  0.3015607867494836 0.1984240883447836 0  0.4627765702082428 0.1240208041883069 0  0.4758555117118799 0.1168728447189903 0  0.3913550998498742 0.1684672069625363 0  0.3590816229842124 0.1816983850400188 0  0.4457836558118329 0.1331158615091649 0  0.436521079905892 0.1379648955410318 0  0.4049375141934234 0.1622666273015017 0  0.2556967127893692 0.1960157017119842 0  0.2550763875533869 0.2033885729367546 0  0.4273730691026273 0.1512455287869626 0  0.3695091582776312 0.1694405444469008 0  0.337746250378298 0.1808362391944837 0  0.2806928708389079 0.1939517169270642 0  0.2904342961491917 0.1925424127272782 0  0.4183233698535945 0.1559317103231009 0  0.3467177431390369 0.1778353493137496 0  0.3787534085086988 0.1654082125241829 0  0.3149649810431744 0.1874982040363883 0  0.5399204525799045 0.08942294073180851 0  0.536275098021715 0.08254771513951448 0  0.3164193313092511 0.1950825711484959 0  0.2706760802971951 0.194971578545157 0  0.562338436686621 0.07748807779046732 0  0.4235283967068927 0.1438574589553415 0  0.4144771855524533 0.1488131861803216 0  0.3400456567505289 0.1892790722107607 0  0.2813532511177602 0.2026560041920074 0  0.2919585700763045 0.2010961065440553 0  0.3727331259139843 0.1770994631447287 0  0.3494420733216985 0.1865349843784929 0  0.3820734700353645 0.1739095647700626 0  0.2645581232800674 0.1956871097475836 0  0.5681190123647445 0.07332768258785687 0  0.5095600268780441 0.09741794081714519 0  0.4965698665298336 0.1047778994884535 0  0.3074069879600502 0.197675164121505 0  0.4835459859824801 0.1120633956031448 0  0.5485028368757947 0.08509960086441141 0  0.4704889387985382 0.119266218915365 0  0.457438001269746 0.12634849797
[...]
<PointData  Vectors="d"> 
<DataArray  type="Float64"  Name="d"  NumberOfComponents="3" format="ascii">-3.4056977033401846e-02 -1.3180371437191621e-01 0.0000000000000000e+00  -2.3906044553798498e-02 -1.3435510662912725e-01 0.0000000000000000e+00  0.0000000000000000e+00 0.0000000000000000e+00 0.0000000000000000e+00  0.0000000000000000e+00 0.0000000000000000e+00 0.0000000000000000e+00  -2.8981488689256749e-02 -1.3307930176616595e-01 0.0000000000000000e+00  0.0000000000000000e+00 0.0000000000000000e+00 0.0000000000000000e+00  0.0000000000000000e+00 0.0000000000000000e+00 0.0000000000000000e+00  0.0000000000000000e+00 0.0000000000000000e+00 0.0000000000000000e+00  0.0000000000000000e+00 0.0000000000000000e+00 0.0000000000000000e+00  1.8117530622008347e-04 -1.6000134839350388e-04 0.0000000000000000e+00  3.7980106373376792e-04 -3.3835609192063983e-04 0.0000000000000000e+00  5.7482098886485564e-04 -5.6667068969809195e-04 0.0000000000000000e+00  7.5314396038329802e-04 -9.4591312455361053e-04 0.0000000000000000e+00  9.1591190781496648e-04 -1.4078048145439851e-03 0.0000000000000000e+00  1.0767343565188075e-03 -1.9859076123354821e-03 0.0000000000000000e+00  1.2121029094767251e-03 -2.6245409824059858e-03 0.0000000000000000e+00  1.3184058353327573e-03 -3.3675694777482515e-03 0.0000000000000000e+00  1.4150000187748695e-03 -4.1941959097536660e-03 0.0000000000000000e+00  1.4879506593051292e-03 -5.1028235234851071e-03 0.0000000000000000e+00  1.5512475147354725e-03 -6.1227174065254511e-03 0.0000000000000000e+00  1.6094964666896927e-03 -7.1611893083772240e-03 0.0000000000000000e+00  1.6194002766798550e-03 -8.3193134524851206e-03 0.0000000000000000e+00  1.6395956384629015e-03 -9.5469226328672840e-03 0.0000000000000000e+00  1.6122053369128258e-03 -1.0829976788911292e-02 0.0000000000000000e+00  1.5687385658030666e-03 -1.2201345248801988e-02 0.0000000000000000e+00  1.5028548445125305e-03 -1.3621773642321408e-02 0.0000000000000000e+00  1.4069367055724498e-03 -1.5125380888622801e-02 0.0000000000000000e+00  1.2875996482914669e-03 -1.6661864237857728e-02 0.0000000000000000e+00  1.1447393184901044e-03 -1.8269019031119414e-02 0.0000000000000000e+00  9.7739880862865360e-04 -1.9923668602952600e-02 0.0000000000000000e+00  7.8447901880874648e-04 -2.1624343660504561e-02 0.0000000000000000e+00  5.7346953111327441e-04 -2.3403830299317162e-02 0.0000000000000000e+00  3.5776096423156020e-04 -2.5194458847067933e-02 0.0000000000000000e+00  1.0489881777728939e-04 -2.7050651621956193e-02 0.0000000000000000e+00  -1.6718853897272317e-04 -2.8932791262414877e-02 0.0000000000000000e+00  -4.6076684751503324e-04 -3.0863966108389991e-02 0.0000000000000000e+00  -7.7461341769933850e-04 -3.2829091688569602e-02 0.0000000000000000e+00  -1.1103597952776773e-03 -3.4825129111086636e-02 0.0000000000000000e+00  -1.4638995140170753e-03 -3.6875332054685010e-02 0.0000000000000000e+00  -1.8207485600609087e-03 -3.8930519699057670e-02 0.0000000000000000e+00  -2.2123203839790038e-03 -4.1027497579025518e-02 0.0000000000000000e+00  -2.6181397286598419e-03 -4.3160706291582827e-02 0.0000000000000000e+00  -3.0286416610719362e-03 -4.5301757819095484e-02 0.0000000000000000e+00  -3.4680184664621851e-03 -4.7479229879829304e-02 0.0000000000000000e+00  -3.9092124412848572e-03 -4.9677758573796596e-02 0.0000000000000000e+00  -4.3723556262119838e-03 -5.1895957125958875e-02 0.0000000000000000e+00  -4.8407174462179372e-03 -5.4141290705610967e-02 0.0000000000000000e+00  -5.3249808334164704e-03 -5.6398854345584414e-02 0.0000000000000000e+00  -5.8207240797921245e-03 -5.8678213267257674e-02 0.0000000000000000e+00  -6.3218997197133911e-03 -6.0972850197344407e-02 0.0000000000000000e+00  -6.8308637451133195e-03 -6.3284853918954609e-02 0.0000000000000000e+00  -7.3515087401968887e-03 -6.5611294984309371e-02 0.0000000000000000e+00  -7.8757386731695984e-03 -6.7950692437224749e-02 0.0000000000000000e+00  -8.4064533492677444e-03 -7.0305045060206572e-02 0.0000000000000000e+00  -8.9464301337200958e-03 -7.2671447011057974e-02 0.0000000000000000e+00  -9.4900758828580338e-03 -7.5048602794717520e-02 0.0000000000000000e+00  -1.0039020811594801e-02 -7.7438445709787099e-02 0.0000000000000000e+00  -1.0595525702040099e-02 -7.9837704983968374e-02 0.0000000000000000e+00  -1.1155636717151737e-02 -8.2246324983399802e-02 0.0000000000000000e+00  -1.1720497651414035e-02 -8.4665802616611996e-02 0.0000000000000000e+00  -1.2292313250458348e-02 -8.7093479078646105e-02 0.0000000000000000e+00  -1.2867825948478727e-02 -8.9529463956517674e-02 0.0000000000000000e+00  -1.3447969023089082e-02 -9.1974981937058331e-02 0.0000000000000000e+00  -1.4034671527181275e-02 -9.4427534298031385e-02 0.0000000000000000e+00  -1.4624775092833874e-02 -9.6887762206100569e-02 0.0000000000000000e+00  -1.5219343217238637e-02 -9.9356066287187655e-02 0.0000000000000000e+00  -1.5819056164244078e-02 -1.0183109425259897e-01 0.0000000000000000e+00  -1.6423142954218938e-02 -1.0431090552079217e-01 0.0000000000000000e+00  -1.7032913779756308e-02 -1.0679726770728284e-01 0.0000000000000000e+00  -1.7646694593120214e-02 -1.0929066028853981e-01 0.0000000000000000e+00  -1.8261134903079897e-02 -1.1178538804924681e-01 0.0000000000000000e+00  -1.8881121462914680e-02 -1.1428598891751643e-01 0.0000000000000000e+00  -1.9502244918593790e-02 -1.1679034065716065e-01 0.0000000000000000e+00  -2.0127035704974875e-02 -1.1929622131890930e-01 0.0000000000000000e+00  -2.0754550939814896e-02 -1.2180530742614826e-01 0.0000000000000000e+00  -2.1382784665621046e-02 -1.2431444319794979e-01 0.0000000000000000e+00  -2.2013121932528846e-02 -1.2682461164498274e-01 0.0000000000000000e+00  -2.2644062837308840e-02 -1.2933539591469004e-01 0.0000000000000000e+00  -2.3274912108751860e-02 -1.3184532665023355e-01 0.0000000000000000e+00  -3.3425941815736208e-02 -1.2929470433704937e-01 0.0000000000000000e+00  -3.2794012896646837e-02 -1.2678572822257367e-01 0.0000000000000000e+00  -3.2161368373816820e-02 -1.2427659770444069e-01 0.0000000000000000e+00  -3.1527643804887998e-02 -1.2176822290063546e-01 0.0000000000000000e+00  -3.0893439332020163e-02 -1.1926158236203710e-01 0.0000000000000000e+00  -3.0258185055106877e-02 -1.1675605005837929e-01 0.0000000000000000e+00  -2.9622830566552072e-02 -1.1425428814315096e-01 0.0000000000000000e+00  -2.8986526765039562e-02 -1.1175658571302843e-01 0.0000000000000000e+00  -2.8351113047207877e-02 -1.0926189881102426e-01 0.0000000000000000e+00  -2.7716608825170526e-02 -1.0677395677287206e-01 0.0000000000000000e+00  -2.7082228062162868e-02 -1.0428996176235572e-01 0.0000000000000000e+00  -2.6451464612198404e-02 -1.0181298588114207e-01 0.0000000000000000e+00  -2.5822790259920559e-02 -9.9345334767879323e-02 0.0000000000000000e+00  -2.5193103410096330e-02 -9.6880338289038498e-02 0.0000000000000000e+00  -2.4569417485949933e-02 -9.4424943906598072e-02 0.0000000000000000e+00  -2.3948466765312135e-02 -9.1980651038492497e-02 0.0000000000000000e+00  -2.3327110090880898e-02 -8.9539359183560222e-02 0.0000000000000000e+00  -2.2713341595901916e-02 -8.7109044119866724e-02 0.0000000000000000e+00  -2.2102000260372821e-02 -8.4690553957357029e-02 0.0000000000000000e+00  -2.1490432034388024e-02 -8.2275172953201553e-02 0.0000000000000000e+00  -2.0886755564421065e-02 -7.9872274326222320e-02 0.0000000000000000e+00  -2.0284671225176170e-02 -7.7482517178007790e-02 0.0000000000000000e+00  -1.9682234529327304e-02 -7.5096130904356781e-02 0.0000000000000000e+00  -1.9087659315937828e-02 -7.2724510559237246e-02 0.0000000000000000e+00  -1.8493673591924921e-02 -7.0368849088122562e-02 0.0000000000000000e+00  -1.7899609196284996e-02 -6.8018825390332355e-02 0.0000000000000000e+00  -1.7311406941436444e-02 -6.5684847389770040e-02 0.0000000000000000e+00  -1.6724856149567216e-02 -6.3371734319944778e-02 0.0000000000000000e+00  -1.6138739460752477e-02 -6.1062667832250256e-02 0.0000000000000000e+00  -1.5563635949643738e-02 -5.8775860571426426e-02 0.0000000000000000e+00  -1.4988530828922049e-02 -5.6517541870997716e-02 0.0000000000000000e+00  -1.4412689029448290e-02 -5.4266056336874709e-02 0.0000000000000000e+00  -1.3847915052925120e-02 -5.2043510582950224e-02 0.0000000000000000e+00  -1.3289380210535785e-02 -4.9835801756732037e-02 0.0000000000000000e+00  -1.2737616214944313e-02 -4.7653898790911316e-02 0.0000000000000000e+00  -1.2198566939282731e-02 -4.5503168212286414e-02 0.0000000000000000e+00  -1.1658081651467832e-02 -4.3371835612330933e-02 0.0000000000000000e+00  -1.1133146456001074e-02 -4.1271375388972964e-02 0.0000000000000000e+00  -1.0612598271850741e-02 -3.9199672570410897e-02 0.0000000000000000e+00  -1.0100475936220996e-02 -3.7161175946903623e-02 0.0000000000000000e+00  -9.6023247217322076e-03 -3.5156726777293201e-02 0.0000000000000000e+00  -9.1201874095386236e-03 -3.3176093931383245e-02 0.0000000000000000e+00  -8.6523255135118032e-03 -3.1234605327781783e-02 0.0000000000000000e+00  -8.1759637751259717e-03 -2.9327293675271409e-02 0.0000000000000000e+00  -7.7290714501864659e-03 -2.7461308815722656e-02 0.0000000000000000e+00  -7.2793545079954947e-03 -2.5646546328588475e-02 0.0000000000000000e+00  -6.8537260132833485e-03 -2.3862229177350081e-02 0.0000000000000000e+00  -6.4377117189121482e-03 -2.2136212327296408e-02 0.0000000000000000e+00  -6.0395946237913516e-03 -2.0442605599944437e-02 0.0000000000000000e+00  -5.6585146286898284e-03 -1.8805630261737084e-02 0.0000000000000000e+00  -5.2632447438532648e-03 -1.7214480771429001e-02 0.0000000000000000e+00  -4.9052581046041552e-03 -1.5679408682025921e-02 0.0000000000000000e+00  -4.5388590814833965e-03 -1.4215081330680465e-02 0.0000000000000000e+00  -4.2118146551051077e-03 -1.2796030396766429e-02 0.0000000000000000e+00  -3.8948689251663950e-03 -1.1465707076034703e-02 0.0000000000000000e+00  -3.5743423848044399e-03 -1.0155743510847396e-02 0.0000000000000000e+00  -3.2851972150988377e-03 -8.9388160675838921e-03 0.0000000000000000e+00  -2.9746062842184121e-03 -7.7896537630392131e-03 0.0000000000000000e+00  -2.7061839353079960e-03 -6.7003894001566909e-03 0.0000000000000000e+00  -2.4433317834780576e-03 -5.7072894273547652e-03 0.0000000000000000e+00  -2.1961253462556558e-03 -4.7659316254051566e-03 0.0000000000000000e+00  -1.9631310495217447e-03 -3.9174438425784008e-03 0.0000000000000000e+00  -1.7071784344153821e-03 -3.1344622305716032e-03 0.0000000000000000e+00  -1.4947043602257142e-03 -2.4358732928335576e-03 0.0000000000000000e+00  -1.2540759807631045e-03 -1.8253541246702424e-03 0.0000000000000000e+00  -1.0473637742009383e-03 -1.3172125773676688e-03 0.0000000000000000e+00  -8.1613405461058509e-04 -8.9810781552598028e-04 0.0000000000000000e+00  -6.0814113029538405e-04 -5.4405172851521347e-04 0.0000000000000000e+00  -4.0493751670654980e-04 -2.9627435194524759e-04 0.0000000000000000e+00  -2.0094847345977166e-04 -1.7009001050052470e-04 0.0000000000000000e+00  -3.1519188273832252e-02 -1.3244156875700375e-01 0.0000000000000000e+00  -2.6443987531996081e-02 -1.3371710808242945e-01 0.0000000000000000e+00  1.6588055947708205e-05 -1.6433877189933125e-04 0.0000000000000000e+00  -2.1741143081659239e-02 -1.0429606673991164e-01 0.0000000000000000e+00  -2.4936373241477509e-02 -1.1695703979522981e-01 0.0000000000000000e+00  5.6913443565213111e-06 -1.6348249474356111e-03 0.0000000000000000e+00  -1.8174704547047432e-02 -8.9696221344004123e-02 0.0000000000000000e+00  -1.9987650089938084e-02 -9.7048714458305679e-02 0.0000000000000000e+00  -3.8000974970345047e-04 -4.1029688727283230e-03 0.0000000000000000e+00  -2.7012190647420206e-02 -1.2427805598954987e-01 0.0000000000000000e+00  -5.8035696247837865e-04 -7.2975316132344531e-03 0.0000000000000000e+00  -1.2648722991971601e-03 -1.4323006178548708e-02 0.0000000000000000e+00  -1.6398959265216707e-02 -8.2418698789489334e-02 0.0000000000000000e+00  -2.4521147774911002e-03 -2.0131259956049346e-02 0.0000000000000000e+00  -1.4659717746956758e-02 -7.5225140182127115e-02 0.0000000000000000e+00  -3.4332100483601613e-03 -2.5594158613453051e-02 0.0000000000000000e+00  -4.8878060303924591e-03 -3.2970897930602990e-02 0.0000000000000000e+00  -1.3084258309200731e-02 -6.7912966126041183e-02 0.0000000000000000e+00  -1.1206145117500128e-02 -6.0999833080711240e-02 0.0000000000000000e+00  -6.0909646407594021e-03 -3.8890261925396491e-02 0.0000000000000000e+00  -7.5667608959475137e-03 -4.5373807519002586e-02 0.0000000000000000e+00  -9.5353465415834535e-03 -5.3891192906661424e-02 0.0000000000000000e+00  -8.5267984648859109e-04 -9.6507133963613725e-03 0.0000000000000000e+00  -2.3672459640963008e-02 -1.1198225969291918e-01 0.0000000000000000e+00  -8.4861916455540240e-03 -4.9106485334851076e-02 0.0000000000000000e+00  -1.9365542721299673e-03 -1.7319607522090219e-02 0.0000000000000000e+00  -4.1575772765360961e-03 -2.9628987970336491e-02 0.0000000000000000e+00  -1.5690329325474250e-04 -2.7882805373353643e-03 0.0000000000000000e+00  -2.8738313016260848e-02 -1.2834895715197517e-01 0.0000000000000000e+00  9.0685916443173820e-05 -7.2728416255035124e-04 0.0000000000000000e+00  -1.0977386754289343e-02 -6.4719763133074371e-02 0.0000000000000000e+00  -1.4345516221245613e-02 -7.8911399767311902e-02 0.0000000000000000e+00  -1.6087710684784755e-02 -8.6151596225388996e-02 0.0000000000000000e+00  -6.4274002898439229e-03 -3.5777273989298017e-02 0.0000000000000000e+00  -1.2641321373934360e-02 -7.1761094302389361e-02 0.0000000000000000e+00  -1.7869097950172736e-02 -9.3470561742938815e-02 0.0000000000000000e+00  -9.3644088040213784e-03 -5.7812419202207435e-02 0.0000000000000000e+00  -1.9688880983442111e-02 -1.0086006469031288e-01 0.0000000000000000e+00  -7.8108284470565772e-03 -4.1968182009412533e-02 0.0000000000000000e+00  -3.6966790857994297e-03 -2.2559727304670679e-02 0.0000000000000000e+00  -8.6578436240372539e-04 -5.7621466357933443e-03 0.0000000000000000e+00  -2.6961727258205202e-02 -1.2024540134162547e-01 0.0000000000000000e+00  -2.4107689228133170e-02 -1.0761404012416403e-01 0.0000000000000000e+00  -3.6271801424585422e-04 -1.1875371541626184e-02 0.0000000000000000e+00  -2.0473674615344131e-02 -1.0742992710533533e-01 0.0000000000000000e+00  -2.2898151986254192e-03 -1.2200251148993322e-02 0.0000000000000000e+00  -2.3026638409268212e-02 -1.0119481825743032e-01 0.0000000000000000e+00  -2.1174356385412037e-02 -9.3806830063286620e-02 0.0000000000000000e+00  -1.9355745981239129e-02 -8.6490144456009915e-02 0.0000000000000000e+00  -2.4137721936878416e-02 -1.2213532793399715e-01 0.0000000000000000e+00  3.7968848452873266e-04 -5.4507299908101402e-03 0.0000000000000000e+00  -1.5818846548168283e-02 -7.2104377476097187e-02 0.0000000000000000e+00  -1.7571322161387105e-02 -7.9252336945415905e-02 0.0000000000000000e+00  -3.7583068218889105e-03 -3.5407611373060283e-02 0.0000000000000000e+00  -1.4251437481994139e-03 -2.2176433295576285e-02 0.0000000000000000e+00  -1.3599225033881654e-02 -6.3009320155234388e-02 0.0000000000000000e+00  -1.2411502616788524e-02 -5.8160286123368855e-02 0.0000000000000000e+00  -5.0073095951986306e-03 -4.1608191034097380e-02 0.0000000000000000e+00  -8.9587190827842319e-05 -7.0135313745323170e-05 0.0000000000000000e+00  6.1651522447113454e-05 -5.4070062356805065e-05 0.0000000000000000e+00  -7.4300785438415609e-03 -5.2528228977192816e-02 0.0000000000000000e+00  -5.1270433307787659e-03 -2.6785697788954520e-02 0.0000000000000000e+00  -2.8795862081325259e-03 -1.5210552999505231e-02 0.0000000000000000e+00  -6.0729728007548236e-04 -2.0950752669859126e-03 0.0000000000000000e+00  -8.3434259479755492e-04 -3.5392201376500572e-03 0.0000000000000000e+00  -6.3471637283946834e-03 -4.8021497482853497e-02 0.0000000000000000e+00  -3.4444325938761105e-03 -1.8211442880438147e-02 0.0000000000000000e+00  -6.0154071635706175e-03 -3.0638579670053026e-02 0.0000000000000000e+00  -1.6673874951815167e-03 -8.6612545269816304e-03 0.0000000000000000e+00  -2.2234548525436597e-02 -1.1435870852809062e-01 0.0000000000000000e+00  -2.6166289680261818e-02 -1.1352847722162325e-01 0.0000000000000000e+00  1.7982772593827778e-04 -8.7853845939733013e-03 0.0000000000000000e+00  -4.1263312356706113e-04 -9.9806578742677008e-04 0.0000000000000000e+00  -2.4963000953739430e-02 -1.2723471031261499e-01 0.0000000000000000e+00  -1.1139559937378167e-02 -5.1607686999909821e-02 0.0000000000000000e+00  -9.8524648553453432e-03 -4.7062511913584647e-02 0.0000000000000000e+00  -2.1029433282340876e-04 -1.5514977818331586e-02 0.0000000000000000e+00  4.8475844166688022e-04 -2.1182375892582301e-03 0.0000000000000000e+00  5.5086676243217708e-04 -3.6848451630401833e-03 0.0000000000000000e+00  -2.0382666965088115e-03 -2.7435390900126710e-02 0.0000000000000000e+00  -4.7957556818808294e-04 -1.8640356940137607e-02 0.0000000000000000e+00  -2.4548187938652041e-03 -3.1265776548573390e-02 0.0000000000000000e+00  -2.5636326543788409e-04 -5.2186455105385839e-04 0.0000000000000000e+00  -2.6205752001544885e-02 -1.3071385977106134e-01 0.0000000000000000e+00  -2.2537234167570298e-02 -9.8226569087941959e-02 0.0000000000000000e+00  -2.0695977398939160e-02 -9.0866610416631882e-02 0.0000000000000000e+00  4.1466239978444621e-04 -6.6716392657500912e-03 0.0000000000000000e+00  -1.8888440829446448e-02 -8.3581114301941595e-02 0.0000000000000000e+00  -2.3157466697640450e-02 -1.1924720252286473e-01 0.0000000000000000e+00  -1.7114070896535809e-02 -7.6378290989718142e-02 0.0000000000000000e+00  -1.5377196259880344e-02 -6.9291748912494233e-02 0.0000000000000000e+00  -1.5895621444903245e-03 -2.4290257934717046e-02 0.0000000000000000e+00  -1.4487558565622050e-02 -6.5669736773367252e-02 0.0000000000000000e+00  -4.0413522005285840e-03 -3.7850680179245200e-02 0.0000000000000000e+00  -1.1992817904499723e-02 -5.5440786382783644e-02 0.0000000000000000e+00  -5.3315287331894834e-03 -4.4157325423038872e-02 0.0000000000000000e+00  -2.9443316593082771e-02 -1.2568014455939822e-01 0.0000000000000000e+00  -2.0896109404336834e-02 -1.1039953929613811e-01 0.0000000000000000e+00  -2.1719571475641635e-03 -1.0625067602563499e-02 0.0000000000000000e+00  3.9936535876100598e-04 -1.1092084161476168e-03 0.0000000000000000e+00  2.1614439288333969e-04 -4.2251201368860510e-04 0.0000000000000000e+00  -9.3347622519109955e-03 -6.2748163700380277e-02 0.0000000000000000e+00  -9.2338686907431234e-03 -4.3745121199859738e-02 0.0000000000000000e+00  -1.0960727370509345e-02 -6.9756560205202239e-02 0.0000000000000000e+00  -1.6150663078505090e-02 -9.1378775585652772e-02 0.0000000000000000e+00  -1.2679106075212842e-02 -7.6861656893445859e-02 0.0000000000000000e+00  -1.4394399755914918e-02 -8.4079405723301220e-02 0.0000000000000000e+00  -7.5454796122009036e-03 -3.7682851422288575e-02 0.0000000000000000e+00  -7.8541253751975224e-03 -5.5912977929436572e-02 0.0000000000000000e+00  -4.8106797602550577e-03 -2.4091522799396317e-02 0.0000000000000000e+00  -6.9707448207840987e-03 -3.3653632920441275e-02 0.0000000000000000e+00  -1.9079681988838287e-02 -1.0355507211373720e-01 0.0000000000000000e+00  -4.1982358384046884e-03 -2.0770046194013795e-02 0.0000000000000000e+00  -1.8273319163701562e-02 -9.8572073657054352e-02 0.0000000000000000e+00  -1.4756583705630209e-03 -6.6849434335172001e-03 0.0000000000000000e+00  -1.1913858465430784e-03 -4.8041538503414746e-03 0.0000000000000000e+00  -2.8643018048149102e-02 -1.2219262210697106e-01 0.0000000000000000e+00  -2.7567635695802169e-02 -1.1751766533659651e-01 0.0000000000000000e+00  -1.6057995928182845e-02 -8.8857240858225897e-02 0.0000000000000000e+00  -1.4309544482795703e-02 -8.1585511733374222e-02 0.0000000000000000e+00  -1.0790272831917762e-02 -6.7259243940866395e-02 0.0000000000000000e+00  -1.7711182545689989e-02 -9.6159464343348405e-02 0.0000000000000000e+00  -1.2600844212438171e-02 -7.4399111899923751e-02 0.0000000000000000e+00  -9.1360503534060594e-03 -6.0312911329091834e-02 0.0000000000000000e+00  -7.9794008942824287e-03 -3.9697518272995308e-02 0.0000000000000000e+00  2.4587376557670676e-04 -1.0671894333638288e-02 0.0000000000000000e+00  -2.5629024691335735e-02 -1.0975733078802297e-01 0.0000000000000000e+00  -2.4361251270364155e-02 -1.0504759627699961e-01 0.0000000000000000e+00  -2.