<?xml version="1.0"?>
<VTKFile type="UnstructuredGrid"  version="0.1"  >
<UnstructuredGrid>
<Piece  NumberOfPoints="439" NumberOfCells="725">
<Points>
<DataArray  type="Float64"  NumberOfComponents="3"  format="ascii">0.5997015728606415 0.1742484805060166 0  0.6002680846089475 0.1943875899639337 0  0.2489897949 0.21 0  0.2489897949 0.19 0  0.5999852775224754 0.1843177708550102 0  0.2496355385699469 0.2060260530378829 0  0.249959460510575 0.2020130349814059 0  0.2499594605105767 0.1979869650186357 0  0.24963553856995 0.1939739469621422 0  0.2539709406144144 0.2099692809771414 0  0.2589580637562126 0.2099338775075695 0  0.2639451487947292 0.2098867930324961 0  0.268930037279986 0.2098049350736047 0  0.2739128574618013 0.20970389662103 0  0.2788977369556818 0.2095751548210125 0  0.2838780144103828 0.2094318231032551 0  0.2888540367655705 0.2092626296094189 0  0.2938301681429695 0.2090731026078059 0  0.2988030246036125 0.208863719541155 0  0.3037777420583342 0.2086290708870559 0  0.3087503886905762 0.2083915386507811 0  0.3137162920403784 0.2081278902820939 0  0.3186839977499944 0.2078543332763106 0  0.3236434830600612 0.2075701206268679 0  0.3285999917180262 0.207276585970542 0  0.3335516361149882 0.2069783500797095 0  0.3384989710264752 0.2066752295738695 0  0.3434418109272073 0.2063740971097905 0  0.3483806972278098 0.2060745292507442 0  0.3533162134619895 0.205778306868411 0  0.3582487379842322 0.2054878677478189 0  0.3631745217332627 0.2052082938167715 0  0.3680979852029916 0.20493040529237 0  0.3730183880288037 0.2046638597206532 0  0.3779382130374164 0.204404444711696 0  0.3828559620964247 0.2041546210572366 0  0.3877743498693878 0.2039132475822518 0  0.3926949900116709 0.2036792155690823 0  0.3976189647232729 0.203454870999219 0  0.402544811084983 0.2032317079884562 0  0.4074783524969232 0.2030125573903717 0  0.4124174098242305 0.2027909082617385 0  0.4173593667168263 0.2025668954546324 0  0.4223065406251857 0.2023347489049275 0  0.4272580223413462 0.2020942871596279 0  0.4322095420330225 0.2018438257545417 0  0.4371645758957365 0.201581286342864 0  0.4421167054681389 0.2013113913981998 0  0.4470683268005019 0.2010310846469304 0  0.45201915796971 0.2007450181984103 0  0.4569681561952207 0.2004532294882675 0  0.4619137102213848 0.2001594706141521 0  0.4668574904974773 0.1998655301536737 0  0.4717992516571589 0.1995718833083524 0  0.4767372970934102 0.1992815712520313 0  0.4816738604643746 0.1989950088904427 0  0.4866086336681624 0.1987128095816882 0  0.4915397077902321 0.1984350079399365 0  0.4964685801194823 0.1981631214302512 0  0.501394759776564 0.1978977331334264 0  0.5063181945304986 0.1976376083786412 0  0.5112380559497431 0.1973852222168226 0  0.5161543440796641 0.1971422806172995 0  0.5210711050263136 0.1969082758856965 0  0.5259847942466835 0.1966852190439567 0  0.5308980224568086 0.1964747722642854 0  0.5358142110604552 0.1962769256976188 0  0.5407372408480576 0.196088952010556 0  0.5456672734054058 0.1959169005812908 0  0.5506006839660562 0.1957588822284461 0  0.5555390623968172 0.1956005326038207 0  0.5604911587746454 0.1954589080732842 0  0.5654466972783726 0.1953199617741308 0  0.5704124884326288 0.1951838696191616 0  0.5753832938258843 0.1950538026733279 0  0.5803577170510951 0.1949205084969699 0  0.5853354442755545 0.1947897852768643 0  0.5903137496272414 0.1946576257474794 0  0.5952910802057704 0.1945235359309237 0  0.5947197252281691 0.1743890327684242 0  0.5897328531632365 0.1745295640692327 0  0.5847434291444883 0.1746689913182235 0  0.5797526673231964 0.1748148854246711 0  0.5747612105827911 0.1749664985693334 0  0.5697741100777279 0.1751209905503863 0  0.5647908098960509 0.1752842719773508 0  0.5598086716836119 0.1754550723113911 0  0.5548376062354639 0.1756266844311989 0  0.5498694476159881 0.1758081866934298 0  0.5449083230196223 0.1759890069956109 0  0.5399542868655224 0.1761805416208457 0  0.5349990889037775 0.1763805950755075 0  0.5300475222464757 0.1765753303405274 0  0.5251018831618275 0.1767861907172162 0  0.5201529347418746 0.1770062136945121 0  0.5152050424648286 0.1772235970355725 0  0.5102592475847876 0.1774582801627719 0  0.5053105837245422 0.1777012636703329 0  0.5003612028906088 0.1779455923574396 0  0.4954112270112622 0.1782048106849194 0  0.490461174471871 0.1784707728810379 0  0.4855107310035252 0.1787415365097982 0  0.4805602600314679 0.1790214960215693 0  0.4756133499209115 0.1793045836998067 0  0.4706683207144073 0.1795926729414795 0  0.465724332434184 0.1798832047549569 0  0.4607866024764002 0.1801717002011983 0  0.4558512722109223 0.1804630635883036 0  0.4509178489515872 0.1807484624639866 0  0.4459898522014883 0.1810249573024241 0  0.4410653832005553 0.1813004580617374 0  0.4361412912219965 0.1815640433620743 0  0.4312174284102358 0.1818213678647707 0  0.4262928844654185 0.1820692279925796 0  0.421366877695468 0.182308836607662 0  0.4164400429020608 0.182542972890505 0  0.4115117797881059 0.1827712936284877 0  0.4065810909509911 0.182998013311679 0  0.4016467498412573 0.1832235267202719 0  0.3967090958690944 0.1834508795406958 0  0.3917701833551704 0.1836799605894954 0  0.3868293831225769 0.1839142344503573 0  0.381882456421838 0.184153034537175 0  0.3769357328996072 0.1843999335622291 0  0.3719825770767233 0.1846555407145855 0  0.3670296618385583 0.1849184093793403 0  0.3620729888929503 0.1851922515009854 0  0.3571173626245385 0.1854735998609048 0  0.3521622032432857 0.1857646991254109 0  0.3472066966541635 0.1860624917632682 0  0.3422570222303077 0.1863652780760578 0  0.3373115772067918 0.1866719904902508 0  0.3323711235973913 0.1869769120892559 0  0.3274366770625333 0.1872768795994493 0  0.3225062983909464 0.1875744073804895 0  0.3175811760255574 0.1878619600855382 0  0.3126662823523763 0.1881400121676034 0  0.3077517003286425 0.1884052640477198 0  0.3028451035397031 0.1886502980599015 0  0.2979411759027805 0.1888821518825447 0  0.2930406062048987 0.1890902460948689 0  0.288149002033983 0.1892816282446219 0  0.2832509422420721 0.1894488270414481 0  0.2783622874383473 0.1895939713889129 0  0.2734674319485997 0.1897119609345142 0  0.2685789746872944 0.1898071477458391 0  0.2636845045989281 0.1898851054129828 0  0.2587875896724505 0.1899376787767524 0  0.2538895861935624 0.1899635619544835 0  0.5998437460385387 0.1792836916291121 0  0.600127430449382 0.189352771041654 0  0.2589759358392628 0.2005224542568971 0  0.5428282360769099 0.1860012182471476 0  0.5679917996372005 0.1851557262872595 0  0.2774474036620602 0.2004427771801297 0  0.5135816363254058 0.1871644653690855 0  0.5283773660243853 0.1864804125390684 0  0.2944353942770964 0.1983601740411187 0  0.5826202858945468 0.1843254605188568 0  0.31034505004007 0.1982774348268397 0  0.336976017160074 0.1975654604997673 0  0.498775230894601 0.1879279151925053 0  0.3552115519134478 0.1956186367008736 0  0.4839519710738608 0.1887529213251342 0  0.3706598363111067 0.1947608917192956 0  0.3897639488475415 0.1937903808711523 0  0.4687320514987688 0.1892827139736639 0  0.4539367038183652 0.1906167486356023 0  0.4041968246584849 0.1932308186736451 0  0.4193646678466569 0.1924481233928641 0  0.4384938247418918 0.1914766180128849 0  0.3201766989239552 0.1977636953370867 0  0.5581105100561845 0.1854697381553423 0  0.4278634944694784 0.1918883310719899 0  0.3467035329989601 0.1962823401608636 0  0.3812796952747253 0.1943513162748346 0  0.2860327068948585 0.1994225524046929 0  0.5909930848448213 0.1827949677714686 0  0.2680057369403792 0.2015264778402753 0  0.461474987000907 0.1924273557309203 0  0.4911251986893748 0.1906981727890571 0  0.5059318457184495 0.1898991866830403 0  0.3970560108157749 0.1911983737145571 0  0.4763025526944653 0.1915483584231005 0  0.5207202406781609 0.1891690107293489 0  0.4466471071005777 0.1932943324077172 0  0.5355089597443685 0.1885285224920654 0  0.4118562599857448 0.19053390247944 0  0.3625028908081923 0.1929382904028749 0  0.3032092252947878 0.1964150752776233 0  0.5750092980052571 0.182728724198196 0  0.5500408641990582 0.1828801988393393 0  0.328284710261551 0.2001495894656165 0  0.5482399309123699 0.1896484820045899 0  0.3299406416936365 0.1933134177797323 0  0.537450274511036 0.1823486968059002 0  0.5226282254996011 0.1829730797164918 0  0.5078126919421136 0.1836819108374944 0  0.5774060325854451 0.1888234374825535 0  0.3012995007567306 0.202638170105974 0  0.4781491021965819 0.1853042128544922 0  0.4929852002523107 0.184463997572043 0  0.3951546158971551 0.197424366735146 0  0.3606501137363601 0.1991931775612052 0  0.4589414088635648 0.1864362897671949 0  0.4485063144429297 0.1870435723025126 0  0.4099511194132112 0.1967629623935789 0  0.255766229755564 0.1960736138838305 0  0.2550276291891311 0.203434121074034 0  0.4347907759009955 0.1954725134101654 0  0.3743587690336415 0.1907681210991998 0  0.3403212216246355 0.1925567507603443 0  0.281157083194251 0.1955841572262556 0  0.291082322224218 0.195278045359207 0  0.4246683437740029 0.1961615319247144 0  0.3498623107730035 0.1919694823321871 0  0.3844687243026057 0.1900814161270274 0  0.3163565334775886 0.1941215336846765 0  0.5619996917830631 0.1891552041863959 0  0.5620307878169334 0.1814345609502339 0  0.316375771528502 0.2018485813051008 0  0.2709909661388142 0.1957581055590406 0  0.5873320064875878 0.1894176331829221 0  0.4342362219565599 0.1871616524354587 0  0.4239412962748133 0.1880910480557867 0  0.3404656460894484 0.2013286569586157 0  0.2809765365734896 0.2043164147341174 0  0.2915437624869495 0.2039616700044273 0  0.374916985895786 0.1990732747255716 0  0.3501509379284579 0.201119210729964 0  0.3846691432070526 0.1992231591118495 0  0.2647543544496553 0.1961020808799361 0  0.594386176265397 0.1885437265230386 0  0.5316084672086714 0.1821080106053248 0  0.5167902056340618 0.1827659110572681 0  0.3071390271578268 0.2028238429792692 0  0.5019684307264538 0.1835030036694766 0  0.5715712244435084 0.1894554763899038 0  0.487133949430362 0.1843084642267736 0  0.4723405855959037 0.1851577605345955 0  0.3664912684058322 0.19935939384948
[...]
<PointData  Vectors="d"> 
<DataArray  type="Float64"  Name="d"  NumberOfComponents="3" format="ascii">-2.9842713935817261e-04 -1.5751519493983384e-02 0.0000000000000000e+00  2.6808460894757062e-04 -1.5612410036066312e-02 0.0000000000000000e+00  0.0000000000000000e+00 0.0000000000000000e+00 0.0000000000000000e+00  0.0000000000000000e+00 0.0000000000000000e+00 0.0000000000000000e+00  -1.4722477524572712e-05 -1.5682229144989911e-02 0.0000000000000000e+00  0.0000000000000000e+00 0.0000000000000000e+00 0.0000000000000000e+00  0.0000000000000000e+00 0.0000000000000000e+00 0.0000000000000000e+00  0.0000000000000000e+00 0.0000000000000000e+00 0.0000000000000000e+00  0.0000000000000000e+00 0.0000000000000000e+00 0.0000000000000000e+00  3.7340008785281765e-05 -3.0719022858524435e-05 0.0000000000000000e+00  8.0657444958405838e-05 -6.6122492430461318e-05 0.0000000000000000e+00  1.2393677783713539e-04 -1.1320696750380301e-04 0.0000000000000000e+00  1.6501955745606127e-04 -1.9506492639527682e-04 0.0000000000000000e+00  2.0403403364427727e-04 -2.9610337897003226e-04 0.0000000000000000e+00  2.4510782190639201e-04 -4.2484517898753370e-04 0.0000000000000000e+00  2.8157957098910160e-04 -5.6817689674481999e-04 0.0000000000000000e+00  3.1379622055392823e-04 -7.3737039058109285e-04 0.0000000000000000e+00  3.4612189231729201e-04 -9.2689739219409771e-04 0.0000000000000000e+00  3.7517264734164020e-04 -1.1362804588450764e-03 0.0000000000000000e+00  4.0608439643455665e-04 -1.3709291129441760e-03 0.0000000000000000e+00  4.3492532305829964e-04 -1.6084613492188223e-03 0.0000000000000000e+00  4.5702296724185379e-04 -1.8721097179061504e-03 0.0000000000000000e+00  4.8092297123941496e-04 -2.1456667236893247e-03 0.0000000000000000e+00  4.9660257568801729e-04 -2.4298793731319852e-03 0.0000000000000000e+00  5.0930552803462551e-04 -2.7234140294579729e-03 0.0000000000000000e+00  5.1714421936739250e-04 -3.0216499202904189e-03 0.0000000000000000e+00  5.2067342524675961e-04 -3.3247704261305040e-03 0.0000000000000000e+00  5.1970762034969490e-04 -3.6259028902093566e-03 0.0000000000000000e+00  5.1478821533384404e-04 -3.9254707492557750e-03 0.0000000000000000e+00  5.0649874389503983e-04 -4.2216931315890343e-03 0.0000000000000000e+00  4.9521756051970839e-04 -4.5121322521810793e-03 0.0000000000000000e+00  4.7719560393178785e-04 -4.7917061832284018e-03 0.0000000000000000e+00  4.5685336804204081e-04 -5.0695947076299167e-03 0.0000000000000000e+00  4.3345048822491318e-04 -5.3361402793467147e-03 0.0000000000000000e+00  4.0946979122879535e-04 -5.5955552883039869e-03 0.0000000000000000e+00  3.8341314461254442e-04 -5.8453789427634992e-03 0.0000000000000000e+00  3.5799521195396724e-04 -6.0867524177480974e-03 0.0000000000000000e+00  3.3482964860773970e-04 -6.3207844309177566e-03 0.0000000000000000e+00  3.1499865460245669e-04 -6.5451290007810369e-03 0.0000000000000000e+00  2.9703931068454149e-04 -6.7682920115439034e-03 0.0000000000000000e+00  2.8677501701228179e-04 -6.9874426096282272e-03 0.0000000000000000e+00  2.8202663869960281e-04 -7.2090917382615716e-03 0.0000000000000000e+00  2.8017782567464226e-04 -7.4331045453676602e-03 0.0000000000000000e+00  2.8354602842221014e-04 -7.6652510950724782e-03 0.0000000000000000e+00  2.9122203895436669e-04 -7.9057128403720658e-03 0.0000000000000000e+00  2.9893602499748094e-04 -8.1561742454583606e-03 0.0000000000000000e+00  3.1016418205920927e-04 -8.4187136571360222e-03 0.0000000000000000e+00  3.1848804880612826e-04 -8.6886086018001865e-03 0.0000000000000000e+00  3.2630367550510098e-04 -8.9689153530694201e-03 0.0000000000000000e+00  3.3332913906541163e-04 -9.2549818015897553e-03 0.0000000000000000e+00  3.3852165893426066e-04 -9.5467705117326402e-03 0.0000000000000000e+00  3.4026997946872263e-04 -9.8405293858478786e-03 0.0000000000000000e+00  3.4024454991068217e-04 -1.0134469846326266e-02 0.0000000000000000e+00  3.3820000395904987e-04 -1.0428116691647516e-02 0.0000000000000000e+00  3.3243973454347126e-04 -1.0718428747968661e-02 0.0000000000000000e+00  3.2519739986128552e-04 -1.1004991109557273e-02 0.0000000000000000e+00  3.1616489798616369e-04 -1.1287190418311796e-02 0.0000000000000000e+00  3.0343331442568349e-04 -1.1564992060063489e-02 0.0000000000000000e+00  2.8849993802119089e-04 -1.1836878569748742e-02 0.0000000000000000e+00  2.7087388947458105e-04 -1.2102266866573575e-02 0.0000000000000000e+00  2.5050293774957476e-04 -1.2362391621358774e-02 0.0000000000000000e+00  2.2655865135566138e-04 -1.2614777783177412e-02 0.0000000000000000e+00  1.9904107565988299e-04 -1.2857719382700524e-02 0.0000000000000000e+00  1.7199631667209829e-04 -1.3091724114303612e-02 0.0000000000000000e+00  1.4187983138282164e-04 -1.3314780956043193e-02 0.0000000000000000e+00  1.1130233586924125e-04 -1.3525227735714580e-02 0.0000000000000000e+00  8.3685233856535112e-05 -1.3723074302381219e-02 0.0000000000000000e+00  6.2909315820925134e-05 -1.3911047989444005e-02 0.0000000000000000e+00  4.9136167552620783e-05 -1.4083099418709086e-02 0.0000000000000000e+00  3.8741022565507169e-05 -1.4241117771553968e-02 0.0000000000000000e+00  3.3313747671434894e-05 -1.4399467396179208e-02 0.0000000000000000e+00  4.1604419856798508e-05 -1.4541091926715910e-02 0.0000000000000000e+00  5.3337217924157155e-05 -1.4680038225869142e-02 0.0000000000000000e+00  7.5322666517328317e-05 -1.4816130380838403e-02 0.0000000000000000e+00  1.0232235413826529e-04 -1.4946197326672180e-02 0.0000000000000000e+00  1.3293987371153430e-04 -1.5079491503030071e-02 0.0000000000000000e+00  1.6686139252043353e-04 -1.5210214723135738e-02 0.0000000000000000e+00  2.0136103856064583e-04 -1.5342374252520581e-02 0.0000000000000000e+00  2.3488591142975328e-04 -1.5476464069076377e-02 0.0000000000000000e+00  -3.3646906621421547e-04 -1.5610967231575715e-02 0.0000000000000000e+00  -3.7953542552147560e-04 -1.5470435930767299e-02 0.0000000000000000e+00  -4.2515373863103914e-04 -1.5331008681776526e-02 0.0000000000000000e+00  -4.7210985427634759e-04 -1.5185114575328876e-02 0.0000000000000000e+00  -5.1976088906044546e-04 -1.5033501430666632e-02 0.0000000000000000e+00  -5.6305568850357210e-04 -1.4879009449613777e-02 0.0000000000000000e+00  -6.0255016456748386e-04 -1.4715728022649260e-02 0.0000000000000000e+00  -6.4088267137681033e-04 -1.4544927688608917e-02 0.0000000000000000e+00  -6.6814241389395246e-04 -1.4373315568801063e-02 0.0000000000000000e+00  -6.9249532771560379e-04 -1.4191813306570220e-02 0.0000000000000000e+00  -7.0981421848206341e-04 -1.4010993004388971e-02 0.0000000000000000e+00  -7.2004466698228850e-04 -1.3819458379154362e-02 0.0000000000000000e+00  -7.3143692311853508e-04 -1.3619404924492588e-02 0.0000000000000000e+00  -7.3919787478715941e-04 -1.3424669659472574e-02 0.0000000000000000e+00  -7.4103125383514503e-04 -1.3213809282783696e-02 0.0000000000000000e+00  -7.4617396814978759e-04 -1.2993786305487849e-02 0.0000000000000000e+00  -7.5026053959340163e-04 -1.2776402964427530e-02 0.0000000000000000e+00  -7.5224971403501219e-04 -1.2541719837228059e-02 0.0000000000000000e+00  -7.5710786867521599e-04 -1.2298736329667161e-02 0.0000000000000000e+00  -7.6268299697164010e-04 -1.2054407642560414e-02 0.0000000000000000e+00  -7.6885317070977553e-04 -1.1795189315080645e-02 0.0000000000000000e+00  -7.7510000448211816e-04 -1.1529227118962083e-02 0.0000000000000000e+00  -7.8173776720916156e-04 -1.1258463490201719e-02 0.0000000000000000e+00  -7.8840303363659440e-04 -1.0978503978430693e-02 0.0000000000000000e+00  -7.9150743858501823e-04 -1.0695416300193224e-02 0.0000000000000000e+00  -7.9273093946112267e-04 -1.0407327058520549e-02 0.0000000000000000e+00  -7.9291351407145751e-04 -1.0116795245043043e-02 0.0000000000000000e+00  -7.8683776623486915e-04 -9.8282997988015826e-03 0.0000000000000000e+00  -7.7836232608791036e-04 -9.5369364116964124e-03 0.0000000000000000e+00  -7.6797987979370839e-04 -9.2515375360133247e-03 0.0000000000000000e+00  -7.5217092428331962e-04 -8.9750426975759214e-03 0.0000000000000000e+00  -7.3283421959129233e-04 -8.6995419382626723e-03 0.0000000000000000e+00  -7.1312049253320999e-04 -8.4359566379256876e-03 0.0000000000000000e+00  -6.9317759867728397e-04 -8.1786321352292739e-03 0.0000000000000000e+00  -6.7391583786794861e-04 -7.9307720074203742e-03 0.0000000000000000e+00  -6.5611690218026397e-04 -7.6911633923380058e-03 0.0000000000000000e+00  -6.3914598994483252e-04 -7.4570271094949389e-03 0.0000000000000000e+00  -6.2360339825337486e-04 -7.2287063715124481e-03 0.0000000000000000e+00  -6.1048652970856329e-04 -7.0019866883209887e-03 0.0000000000000000e+00  -6.0102193379044100e-04 -6.7764732797282040e-03 0.0000000000000000e+00  -5.9487020029574944e-04 -6.5491204593042685e-03 0.0000000000000000e+00  -5.8997700858432638e-04 -6.3200394105045309e-03 0.0000000000000000e+00  -5.8697153553136441e-04 -6.0857655496427939e-03 0.0000000000000000e+00  -5.9009253064416182e-04 -5.8469654628250187e-03 0.0000000000000000e+00  -5.9301034721868104e-04 -5.6000664377708724e-03 0.0000000000000000e+00  -6.0236046445398008e-04 -5.3444592854144770e-03 0.0000000000000000e+00  -6.1146999695020805e-04 -5.0815906206597003e-03 0.0000000000000000e+00  -6.2433723691128799e-04 -4.8077484990145091e-03 0.0000000000000000e+00  -6.3615779967235702e-04 -4.5264001390950739e-03 0.0000000000000000e+00  -6.4751147530336787e-04 -4.2353008745891494e-03 0.0000000000000000e+00  -6.5921235876739226e-04 -3.9375082367318964e-03 0.0000000000000000e+00  -6.6508107698416826e-04 -3.6347219239421932e-03 0.0000000000000000e+00  -6.6672039486180014e-04 -3.3280095097492184e-03 0.0000000000000000e+00  -6.6336829862383129e-04 -3.0230879107439818e-03 0.0000000000000000e+00  -6.5400912784147221e-04 -2.7231204005507582e-03 0.0000000000000000e+00  -6.4058209377080124e-04 -2.4255926195104666e-03 0.0000000000000000e+00  -6.2189875350152036e-04 -2.1380399144617620e-03 0.0000000000000000e+00  -5.9298672102491381e-04 -1.8599878323966857e-03 0.0000000000000000e+00  -5.6376303911571902e-04 -1.5947359522802355e-03 0.0000000000000000e+00  -5.2655412241661584e-04 -1.3497019400984854e-03 0.0000000000000000e+00  -4.8667605370084131e-04 -1.1178481174553439e-03 0.0000000000000000e+00  -4.4344004594422019e-04 -9.0975390513102212e-04 0.0000000000000000e+00  -3.9123851120445526e-04 -7.1837175537808916e-04 0.0000000000000000e+00  -3.4549259745754690e-04 -5.5117295855194653e-04 0.0000000000000000e+00  -2.9034169552427945e-04 -4.0602861108721090e-04 0.0000000000000000e+00  -2.4139147962469362e-04 -2.8803906548577590e-04 0.0000000000000000e+00  -1.8604303529173928e-04 -1.9285225416099604e-04 0.0000000000000000e+00  -1.3670741801959937e-04 -1.1489458701718923e-04 0.0000000000000000e+00  -8.9816638858707467e-05 -6.2321223247614746e-05 0.0000000000000000e+00  -4.4014412095589013e-05 -3.6438045516570140e-05 0.0000000000000000e+00  -1.5625396146115597e-04 -1.5716308370866124e-02 0.0000000000000000e+00  1.2743044938163246e-04 -1.5647228958318798e-02 0.0000000000000000e+00  2.5093076135197706e-06 -2.9935085943255944e-05 0.0000000000000000e+00  -3.1799830839739746e-04 -1.3998781752821397e-02 0.0000000000000000e+00  -2.4798983961556989e-04 -1.4814732293639200e-02 0.0000000000000000e+00  -3.9890497421747942e-06 -3.5141476206297407e-04 0.0000000000000000e+00  -2.6794705149116841e-04 -1.2737877280006353e-02 0.0000000000000000e+00  -3.0363446935269565e-04 -1.3421930110028424e-02 0.0000000000000000e+00  -7.5500928668232367e-05 -9.3101679941996426e-04 0.0000000000000000e+00  -1.5779724394565471e-04 -1.5217519581478158e-02 0.0000000000000000e+00  -6.7789616855556446e-05 -1.6930237540580652e-03 0.0000000000000000e+00  -2.4158381781001878e-05 -3.2640007436294674e-03 0.0000000000000000e+00  -2.4293536544505560e-04 -1.1974427456584981e-02 0.0000000000000000e+00  -7.0065657456651757e-05 -4.3813632991873339e-03 0.0000000000000000e+00  -2.3477806933177390e-04 -1.1149421323950805e-02 0.0000000000000000e+00  -7.7535079448505306e-05 -5.2533459760732834e-03 0.0000000000000000e+00  -1.2430866270801203e-04 -6.2096191289305247e-03 0.0000000000000000e+00  -2.5370355050460900e-04 -1.0258958452005510e-02 0.0000000000000000e+00  -2.2102786583138014e-04 -9.3832513643073382e-03 0.0000000000000000e+00  -1.5666674334824715e-04 -6.8668386772792649e-03 0.0000000000000000e+00  -1.8642389729982454e-04 -7.5518766072415807e-03 0.0000000000000000e+00  -2.0815312255934840e-04 -8.5091442917922203e-03 0.0000000000000000e+00  -7.0576101714988899e-05 -2.2451888775532028e-03 0.0000000000000000e+00  -2.9484405190075436e-04 -1.4521377630015394e-02 0.0000000000000000e+00  -2.0322021923520906e-04 -7.9605737488341322e-03 0.0000000000000000e+00  -6.2461627587241029e-05 -3.8687550185737825e-03 0.0000000000000000e+00  -9.2939291165357408e-05 -5.7997789046173257e-03 0.0000000000000000e+00  -3.5630797351283750e-05 -6.1899216592525071e-04 0.0000000000000000e+00  -1.2929633329834209e-04 -1.5449948163405733e-02 0.0000000000000000e+00  1.6420794516538849e-05 -1.4864780645375790e-04 0.0000000000000000e+00  -9.8453241720914797e-05 -9.8230075978800006e-03 0.0000000000000000e+00  -1.1107578697050056e-04 -1.1552190539752032e-02 0.0000000000000000e+00  -1.3584587474870936e-04 -1.2351176645771466e-02 0.0000000000000000e+00  -2.4795525290270866e-04 -6.5512629566393697e-03 0.0000000000000000e+00  -1.0230466502418238e-04 -1.0702004905704544e-02 0.0000000000000000e+00  -1.7886803188477200e-04 -1.3081352599469652e-02 0.0000000000000000e+00  -9.4916025187933347e-05 -8.9560309210827208e-03 0.0000000000000000e+00  -2.2156608251610669e-04 -1.3721840836754425e-02 0.0000000000000000e+00  -2.7912319978674188e-04 -7.2157341917576711e-03 0.0000000000000000e+00  -1.9443532114297532e-04 -4.8113462683170008e-03 0.0000000000000000e+00  -1.6243236710814936e-04 -1.3345613935635419e-03 0.0000000000000000e+00  -2.7167346656572355e-04 -1.5020912472954338e-02 0.0000000000000000e+00  -4.1899171999794268e-04 -1.4248279634427388e-02 0.0000000000000000e+00  9.1937046866737878e-05 -2.7219320606241765e-03 0.0000000000000000e+00  -1.7797113737599707e-04 -1.4191839564886524e-02 0.0000000000000000e+00  -2.9408539036239798e-04 -2.8462606508167648e-03 0.0000000000000000e+00  -4.7081071277548203e-04 -1.3776484858510768e-02 0.0000000000000000e+00  -4.6144260736418494e-04 -1.3152101947913950e-02 0.0000000000000000e+00  -4.4555904800843002e-04 -1.2443270826915402e-02 0.0000000000000000e+00  -6.5498283263987477e-05 -1.5051380853035154e-02 0.0000000000000000e+00  1.1840249177589202e-04 -1.2366482296197684e-03 0.0000000000000000e+00  -4.4631455982927426e-04 -1.0820968809911838e-02 0.0000000000000000e+00  -4.4163362095639869e-04 -1.1661184092363297e-02 0.0000000000000000e+00  4.1209225392090061e-05 -6.4504516004506036e-03 0.0000000000000000e+00  1.4334700394828592e-04 -4.6816407743897987e-03 0.0000000000000000e+00  -4.4147198214960782e-04 -9.6888918972043801e-03 0.0000000000000000e+00  -4.2626807975070712e-04 -9.0816093618880361e-03 0.0000000000000000e+00  6.2956245892626247e-06 -7.1118559420201601e-03 0.0000000000000000e+00  -2.0070224633030634e-05 -1.2223141899014975e-05 0.0000000000000000e+00  1.2893158191322790e-05 -8.5219250774538418e-06 0.0000000000000000e+00  -1.2371745473403284e-05 -8.3012443539899547e-03 0.0000000000000000e+00  -2.7743257476837697e-04 -5.4581211366555330e-03 0.0000000000000000e+00  -3.0461496179515592e-04 -3.4900414336446481e-03 0.0000000000000000e+00  -1.4308492473229256e-04 -4.6263496779451197e-04 0.0000000000000000e+00  -1.8631651977116332e-04 -8.0358750572124941e-04 0.0000000000000000e+00  -2.1898079864233548e-06 -7.7916758812400034e-03 0.0000000000000000e+00  -2.9986495990937979e-04 -4.0773098620006361e-03 0.0000000000000000e+00  -3.0009136966360479e-04 -5.9653760672085570e-03 0.0000000000000000e+00  -2.7583506076748446e-04 -2.0379248786934439e-03 0.0000000000000000e+00  -1.5530932227817443e-04 -1.4626445073503112e-02 0.0000000000000000e+00  -4.1059988504355162e-04 -1.4641631410903830e-02 0.0000000000000000e+00  1.3626794518931085e-04 -2.0193744373683364e-03 0.0000000000000000e+00  -9.7747281947986454e-05 -2.1153877354312115e-04 0.0000000000000000e+00  3.0568847227188344e-05 -1.5305154920160172e-02 0.0000000000000000e+00  -4.3173468771111339e-04 -8.3034935197926433e-03 0.0000000000000000e+00  -3.8835413298542529e-04 -7.7846500381194700e-03 0.0000000000000000e+00  2.0969500609603877e-04 -3.4653930704766195e-03 0.0000000000000000e+00  1.0804389739634454e-04 -4.5782704714829949e-04 0.0000000000000000e+00  1.3605917307727211e-04 -8.1928170266819147e-04 0.0000000000000000e+00  1.4559328529264320e-04 -5.4615793192837681e-03 0.0000000000000000e+00  2.2928903857129260e-04 -4.0561305886665632e-03 0.0000000000000000e+00  1.4085437782296851e-04 -5.9521822067864468e-03 0.0000000000000000e+00  -6.0132095850160125e-05 -1.0689341870128501e-04 0.0000000000000000e+00  6.1411899107671384e-05 -1.5497815835879589e-02 0.0000000000000000e+00  -4.8879383694287108e-04 -1.3536499299762377e-02 0.0000000000000000e+00  -4.7563829471085952e-04 -1.2878598847817353e-02 0.0000000000000000e+00  1.4670159756114640e-04 -1.5229604079859094e-03 0.0000000000000000e+00  -4.6599608547256288e-04 -1.2141506235609721e-02 0.0000000000000000e+00  -8.9079129926497260e-05 -1.4891326997372398e-02 0.0000000000000000e+00  -4.6906026471214596e-04 -1.1336045678309562e-02 0.0000000000000000e+00  -4.7461193372252654e-04 -1.0482486356393881e-02 0.0000000000000000e+00  1.6109075307846015e-04 -5.0080610143740604e-03 0.0000000000000000e+00  -4.7239691743228008e-04 -1.0030588812017476e-02 0.0000000000000000e+00  4.6991735442455516e-05 -6.7132790091140237e-03 0.0000000000000000e+00  -4.4238160858371532e-04 -8.7561261509293883e-03 0.0000000000000000e+00  2.1830590913239760e-05 -7.3738165992523882e-03 0.0000000000000000e+00  -2.4245840908691113e-04 -1.5339089498173909e-02 0.0000000000000000e+00  -1.5298665088134863e-04 -1.4381656075006702e-02 0.0000000000000000e+00  -3.2236854204773722e-04 -2.4985927119241555e-03 0.0000000000000000e+00  8.5362261041425265e-05 -2.3097315095992735e-04 0.0000000000000000e+00  4.5426444401037164e-05 -8.2910174629111211e-05 0.0000000000000000e+00  3.6526015871115127e-05 -9.5434896313937555e-03 0.0000000000000000e+00  -3.9007507120290640e-04 -7.4303861715258029e-03 0.0000000000000000e+00  3.5417432391170073e-05 -1.0425190497170413e-02 0.0000000000000000e+00  -5.5293990550744138e-05 -1.2861124022652196e-02 0.0000000000000000e+00  2.0068468287516130e-05 -1.1286601870520963e-02 0.0000000000000000e+00  -6.5482069954801130e-06 -1.2104495748149445e-02 0.0000000000000000e+00  -3.3177780813919386e-04 -6.7759822540958909e-03 0.0000000000000000e+00  2.5036551956261071e-05 -8.6951945609603336e-03 0.0000000000000000e+00  -3.1135973351425962e-04 -5.0716943303706439e-03 0.0000000000000000e+00  -3.4839325625213985e-04 -6.3313069338026022e-03 0.0000000000000000e+00  -1.3730418927378427e-04 -1.3910815079009823e-02 0.0000000000000000e+00  -3.3226706606832472e-04 -4.5376615767192627e-03 0.0000000000000000e+00  -1.4206247653416714e-04 -1.3523866276542224e-02 0.0000000000000000e+00  -2.8280676498299170e-04 -1.5673827625581579e-03 0.0000000000000000e+00  -2.5307626674225180e-04 -1.1109811051471506e-03 0.0000000000000000e+00  -3.0499183694967391e-04 -1.5151562451997230e-02 0.0000000000000000e+00  -3.8370652012788682e-04 -1.4887390414656629e-02 0.0000000000000000e+00  -8.5448337804853276e-05 -1.2619495361224514e-02 0.0000000000000000e+00  -4.8256726884359839e-05 -1.1840734677433606e-02 0.0000000000000000e+00  -1.0227411025133768e-05 -1.0123000526607263e-02 0.0000000000000000e+00  -1.2736181062277264e-04 -1.3315606001275218e-02 0.0000000000000000e+00  -3.0974775623677371e-05 -1.1005857618513531e-02 0.0000000000000000e+00  -4.2212030469146319e-06 -9.2463546265555228e-03 0.0000000000000000e+00  -3.3943285031014215e-04 -6.9920571821387193e-03 0.0000000000000000e+00  1.9244240674504685e-04 -2.4403033227829575e-03 0.0000000000000000e+00  -4.7227233621703407e-04 -1.4401281352454887e-02 0.0000000000000000e+00  -4.9128438506542056e-04 -1.4070125133148358e-02 0.0000000000000000e+00  1.9539444289228897e-04 -3.0128500524398308e-03 0.0000000000000000e