<?xml version="1.0"?>
<VTKFile type="UnstructuredGrid"  version="0.1"  >
<UnstructuredGrid>
<Piece  NumberOfPoints="439" NumberOfCells="725">
<Points>
<DataArray  type="Float64"  NumberOfComponents="3"  format="ascii">0.5762404537028938 0.08721073192796894 0  0.5845825128328433 0.1052480613722823 0  0.2489897949 0.21 0  0.2489897949 0.19 0  0.5804115064880144 0.09622981301979672 0  0.2496355385699469 0.2060260530378829 0  0.249959460510575 0.2020130349814059 0  0.2499594605105767 0.1979869650186357 0  0.24963553856995 0.1939739469621422 0  0.2540627395092767 0.2098853774184448 0  0.2591491720346609 0.2097623183645534 0  0.2642335132953751 0.2096042002985308 0  0.2693071098359761 0.2093405698036908 0  0.274371052236531 0.209018646786828 0  0.2794350583589866 0.2086145763547962 0  0.2844825016447956 0.2081670958124239 0  0.2895113056148168 0.207644247841063 0  0.2945359063751682 0.2070607357886477 0  0.2995463862617012 0.2064164800175081 0  0.3045550335898156 0.2056892989836706 0  0.3095618063864356 0.204948466318121 0  0.3145389222457382 0.2041148893730079 0  0.3195292195517542 0.2032281904058148 0  0.3244872204377492 0.2022958630952394 0  0.3294397092482905 0.2012918829918354 0  0.334379386061354 0.2002473702820829 0  0.3393028963686229 0.1991329956985302 0  0.3442105554531095 0.1979893895736899 0  0.3491060464978168 0.1967853469592291 0  0.3539858217825482 0.1955391941710433 0  0.3588479113184717 0.1942510921811261 0  0.3636989908022675 0.1928929610083169 0  0.3685466737526096 0.1915225992421675 0  0.3733648020382745 0.1900895724523596 0  0.3781659312890432 0.1886299005998638 0  0.3829487318493504 0.1871214268709685 0  0.3877133373994425 0.1855782435528685 0  0.3924575530280747 0.1840032604449884 0  0.3971870306518093 0.1823759112100469 0  0.4019114567291883 0.1807437645654703 0  0.4066050352487197 0.1790718950847605 0  0.4112841927524819 0.1773711227251942 0  0.4159569388627072 0.1756635679573526 0  0.4206036969423457 0.17392929365441 0  0.425242960271605 0.1721793236878054 0  0.4298636627090211 0.1704188474257124 0  0.4344732163406866 0.1686399380711695 0  0.4390700872675354 0.1668562922702264 0  0.4436546165597973 0.1650605903837216 0  0.4482334693945307 0.1632566520897217 0  0.4528058537607574 0.1614438395087179 0  0.4573714375029256 0.1596258984523316 0  0.4619378032581191 0.1578024147443887 0  0.4665044079610148 0.1559722699555874 0  0.4710710905356267 0.1541385109927628 0  0.4756430644888261 0.1523001940379003 0  0.480220263966227 0.1504553212503099 0  0.4847997887845025 0.1486064230135793 0  0.489384933517182 0.1467519549034908 0  0.4939746050925241 0.1448888270670451 0  0.4985635155281685 0.1430190536363989 0  0.5031535154695572 0.1411413869587189 0  0.5077431953860203 0.1392523673294958 0  0.5123273326237823 0.137354675178151 0  0.5169083199835462 0.13544618916246 0  0.5214842295468796 0.1335235469681981 0  0.5260519606476268 0.1315872542831452 0  0.5306129977391822 0.1296390079504472 0  0.5351626513992416 0.1276747818358491 0  0.5397005519187978 0.1256912764350251 0  0.5442353881275367 0.1236994971718264 0  0.5487558782446987 0.1216859305560866 0  0.5532691537718915 0.1196547748407269 0  0.5577682222729381 0.1176152601427476 0  0.5622531787554113 0.1155605920424455 0  0.5667337002689864 0.1135029537505058 0  0.5712020977274256 0.1114404648019122 0  0.5756635542056862 0.109373808336874 0  0.5801245109608351 0.1073106797503987 0  0.5717812978363802 0.08927248475397616 0  0.5673247858259738 0.09133307067728814 0  0.5628700906596104 0.09339442633582198 0  0.5584202145205079 0.09544936211054429 0  0.5539708802465074 0.0974949402079285 0  0.5495241972680729 0.09953136791680185 0  0.5450748489657072 0.1015492475990986 0  0.5406257827991163 0.1035493907742307 0  0.5361676501421192 0.1055337972141475 0  0.5316997286153118 0.1074966499773242 0  0.5272249371432191 0.1094444354247529 0  0.5227335298484043 0.1113751279324801 0  0.518227749454173 0.1132890406034383 0  0.5137188531722815 0.1151953773440188 0  0.5091925748538235 0.1170888077227455 0  0.5046556520733554 0.1189721219306543 0  0.5001148764031971 0.1208517133862462 0  0.495563511253382 0.1227251921917669 0  0.4910095264463236 0.1245935743287174 0  0.4864542344605764 0.1264612299563317 0  0.4818973283064061 0.1283249500512614 0  0.477345414050681 0.1301829584737063 0  0.4727961425367332 0.1320412108506376 0  0.4682498342409108 0.1338922770401271 0  0.463710549002289 0.1357323672556086 0  0.4591761733635513 0.1375699511082408 0  0.4546433054337973 0.1393977636077708 0  0.4501126109262065 0.141208677629541 0  0.4455851167109316 0.1430168965112034 0  0.441049917660831 0.1448102018238349 0  0.4365103548808767 0.1465831756815903 0  0.4319727775020982 0.1483502783716996 0  0.4274226735532964 0.1501006305113453 0  0.4228664973848287 0.1518414103885208 0  0.4183023290276844 0.1535675837723834 0  0.4137268748719318 0.155274089244901 0  0.4091526311773239 0.1569681085979235 0  0.4045673178196597 0.1586401828376912 0  0.3999812830911558 0.1602898098514481 0  0.3953913560112299 0.1619118425191427 0  0.3907932786228095 0.1635026859481928 0  0.3861836571830951 0.1650702600965424 0  0.3815634117201098 0.1665982619052541 0  0.3769516840245708 0.1680931884535937 0  0.3723133497124988 0.1695455861554387 0  0.3676765290375135 0.1709504335962898 0  0.3630165755612504 0.1723253947722939 0  0.3583478324142451 0.1736490696483335 0  0.353662791490049 0.1749440725072978 0  0.3489650119086397 0.1761911510732732 0  0.344280733269167 0.1774013316743752 0  0.3395697417542942 0.1785636316104501 0  0.3348700328531977 0.179668212919157 0  0.3301425021535824 0.1807321357258612 0  0.3254121215377993 0.1817229073173139 0  0.3206852624883902 0.1826965069331456 0  0.3159376621689562 0.1835925800613699 0  0.3112084105515885 0.1844364087103337 0  0.3064481903483918 0.1852307299535801 0  0.3016865223180849 0.1859510524551684 0  0.296913621582943 0.1866308020632354 0  0.292131895832208 0.1872396907400435 0  0.287367195808532 0.1877995640444352 0  0.2825709732151662 0.1882962669622674 0  0.2777947094530214 0.18872816685061 0  0.2729935400938431 0.1890864701718601 0  0.2682092995304009 0.1893805754289045 0  0.2634084374548596 0.1896285301424989 0  0.2586031282952245 0.1898005508175992 0  0.2537974280464214 0.1898864567128707 0  0.5783262832271691 0.09172031416058425 0  0.5824962431284653 0.100739524145726 0  0.2589926098114727 0.200440550626353 0  0.5289368644745083 0.1195317853799445 0  0.5517413544185416 0.1094051826092666 0  0.2774778925534168 0.1996575370687738 0  0.5019447845006986 0.1307655453789907 0  0.5156280910186477 0.1250826961910302 0  0.2942848092917384 0.1964114458419661 0  0.5646919684317792 0.103000040350444 0  0.3100838024038488 0.1948000392691118 0  0.3363180572965923 0.190502541552841 0  0.4882283648847706 0.136384501165699 0  0.3538868894844197 0.1852900855988555 0  0.4745298976368481 0.1419580149121517 0  0.3687702253921883 0.1811270628771531 0  0.3870000532796453 0.1753590505799569 0  0.460403068058678 0.1472855096377921 0  0.4469335750252187 0.1531509675112497 0  0.4006747667532858 0.1707605675434323 0  0.4148786692913333 0.165488414433123 0  0.4326725438290567 0.1587209111092905 0  0.3197621140421477 0.1931291308057401 0  0.5428391528106183 0.1134334352171715 0  0.4227609304115243 0.1623674625687091 0  0.3456695522315296 0.1875707902829112 0  0.3789629579861338 0.1781353539915828 0  0.2859892867132715 0.1980929689373309 0  0.5716744322333085 0.0983502106001018 0  0.2680675907160125 0.2011721804635228 0  0.4545706877148948 0.1525097214739748 0  0.4819108562821476 0.1414755864497416 0  0.4956354028806927 0.1358816370732767 0  0.3932860027030075 0.1708613564728059 0  0.4682231927907038 0.1470223795246226 0  0.5093559274762121 0.1302312191307083 0  0.4409035301729771 0.1579214429061785 0  0.5230239531298368 0.1244955349396245 0  0.407187934750854 0.1659283886668197 0  0.3604377114646701 0.1811651812537015 0  0.3028158908794545 0.193680245814005 0  0.5571857525382209 0.1044931256277463 0  0.5344659905900898 0.1140193926646756 0  0.3281144811737629 0.1943716211609428 0  0.5352813768823692 0.1209422704783034 0  0.3287466472722232 0.1873807597048312 0  0.5226345283019662 0.1180388693399334 0  0.5090244982078402 0.1237643972858284 0  0.4953454610506288 0.1294107829834686 0  0.5616984633521173 0.1091205965558397 0  0.3015148937526075 0.2000392167442036 0  0.4679858300310531 0.1405688118656592 0  0.4816501129023976 0.1350109267922262 0  0.3931665729757921 0.1773509943289472 0  0.35995520886817 0.1876473147029761 0  0.4503360376571566 0.1476703114043312 0  0.4407357127683209 0.151468900936252 0  0.4071826372897075 0.1724130144743849 0  0.2557289358270998 0.1960408072761451 0  0.2550618544999635 0.2034047725556456 0  0.4303879928106494 0.1636235588089298 0  0.3714058319945364 0.1763746107698781 0  0.3387680621463561 0.185018981436766 0  0.2808978156507157 0.1945863248090852 0  0.2907151251658561 0.193599554438403 0  0.4210115028697153 0.1673796080311128 0  0.347963477440311 0.1827551935520878 0  0.3809500571709153 0.1731932253070873 0  0.3155376709051975 0.189985685399178 0  0.5477841447972799 0.1153487725770933 0  0.5449028400320518 0.1082484199154351 0  0.3164878213752697 0.1976313992658348 0  0.270815987418919 0.1952794631794916 0  0.5709275312594819 0.1057875015179612 0  0.4273443456558435 0.155959053744046 0  0.4179096817803009 0.1599737001375467 0  0.3403917642992366 0.1936045156517172 0  0.2812368373719295 0.2032979533801882 0  0.2918397490803261 0.2022011532559139 0  0.3739261576672552 0.1842730037066582 0  0.3499592042504392 0.1916415567862473 0  0.3834777473626526 0.1819327473825904 0  0.2646470927293773 0.1958511820007371 0  0.5769791376233799 0.1022421643992528 0  0.5171119002780563 0.1198605627256782 0  0.5034739725758309 0.1255473931438051 0  0.3073705018329642 0.199636692244177 0  0.489784878936164 0.1311714925869367 0  0.5566363710553189 0.1119541377351823 0  0.4760996797848067 0.1367557787144784 0  0.4624928067059004 0.1422722189626098 0  0.3657245248242055 0.18652
[...]
<PointData  Vectors="d"> 
<DataArray  type="Float64"  Name="d"  NumberOfComponents="3" format="ascii">-2.3759546297106037e-02 -1.0278926807203111e-01 0.0000000000000000e+00  -1.5417487167156642e-02 -1.0475193862771770e-01 0.0000000000000000e+00  0.0000000000000000e+00 0.0000000000000000e+00 0.0000000000000000e+00  0.0000000000000000e+00 0.0000000000000000e+00 0.0000000000000000e+00  -1.9588493511985796e-02 -1.0377018698020334e-01 0.0000000000000000e+00  0.0000000000000000e+00 0.0000000000000000e+00 0.0000000000000000e+00  0.0000000000000000e+00 0.0000000000000000e+00 0.0000000000000000e+00  0.0000000000000000e+00 0.0000000000000000e+00 0.0000000000000000e+00  0.0000000000000000e+00 0.0000000000000000e+00 0.0000000000000000e+00  1.2913890364748927e-04 -1.1462258155522249e-04 0.0000000000000000e+00  2.7176572340664403e-04 -2.3768163544668917e-04 0.0000000000000000e+00  4.1230127848304674e-04 -3.9579970146912151e-04 0.0000000000000000e+00  5.4209211344608574e-04 -6.5943019630916610e-04 0.0000000000000000e+00  6.6222880837401861e-04 -9.8135321317209447e-04 0.0000000000000000e+00  7.8242922521125499e-04 -1.3854236452037411e-03 0.0000000000000000e+00  8.8606680540196032e-04 -1.8329041875760224e-03 0.0000000000000000e+00  9.7106506980019938e-04 -2.3557521589370276e-03 0.0000000000000000e+00  1.0518601245160808e-03 -2.9392642113522252e-03 0.0000000000000000e+00  1.1185343054303046e-03 -3.5835199824919809e-03 0.0000000000000000e+00  1.1833759279158077e-03 -4.3107010163294535e-03 0.0000000000000000e+00  1.2463430189174978e-03 -5.0515336818789808e-03 0.0000000000000000e+00  1.2796531726015333e-03 -5.8851106269921447e-03 0.0000000000000000e+00  1.3261447729992657e-03 -6.7718095941851570e-03 0.0000000000000000e+00  1.3403399533759750e-03 -7.7041369047605220e-03 0.0000000000000000e+00  1.3490230582988573e-03 -8.7081170081646266e-03 0.0000000000000000e+00  1.3448941657332634e-03 -9.7526297179170909e-03 0.0000000000000000e+00  1.3245987673944143e-03 -1.0867004301469807e-02 0.0000000000000000e+00  1.2884521462518024e-03 -1.2010610426310032e-02 0.0000000000000000e+00  1.2401374853408423e-03 -1.3214653040770840e-02 0.0000000000000000e+00  1.1761070644537668e-03 -1.4460805828956763e-02 0.0000000000000000e+00  1.0943908947590919e-03 -1.5748907818873940e-02 0.0000000000000000e+00  1.0016646729365303e-03 -1.7107038991683070e-02 0.0000000000000000e+00  9.0554191766005238e-04 -1.8477400757832510e-02 0.0000000000000000e+00  7.7986449769573316e-04 -1.9910427547640320e-02 0.0000000000000000e+00  6.3718804285550594e-04 -2.1370099400136223e-02 0.0000000000000000e+00  4.7618289753817027e-04 -2.2878573129031517e-02 0.0000000000000000e+00  2.9698274200881344e-04 -2.4421756447131463e-02 0.0000000000000000e+00  9.7392665011461661e-05 -2.5996739555011601e-02 0.0000000000000000e+00  -1.1693541686131483e-04 -2.7624088789953136e-02 0.0000000000000000e+00  -3.3631504511021630e-04 -2.9256235434529817e-02 0.0000000000000000e+00  -5.8654223119108224e-04 -3.0928104915239465e-02 0.0000000000000000e+00  -8.5119043304915929e-04 -3.2628877274805783e-02 0.0000000000000000e+00  -1.1222500284446052e-03 -3.4336432042647434e-02 0.0000000000000000e+00  -1.4192976544178462e-03 -3.6070706345590009e-02 0.0000000000000000e+00  -1.7238400307868816e-03 -3.7820676312194587e-02 0.0000000000000000e+00  -2.0469432990039612e-03 -3.9581152574287529e-02 0.0000000000000000e+00  -2.3811953729907555e-03 -4.1360061928830488e-02 0.0000000000000000e+00  -2.7281301517974566e-03 -4.3143707729773634e-02 0.0000000000000000e+00  -3.0874065651996518e-03 -4.4939409616278375e-02 0.0000000000000000e+00  -3.4523594361138411e-03 -4.6743347910278316e-02 0.0000000000000000e+00  -3.8237807755291090e-03 -4.8556160491282287e-02 0.0000000000000000e+00  -4.2020027389904459e-03 -5.0374101547668373e-02 0.0000000000000000e+00  -4.5794426894475307e-03 -5.2197585255611377e-02 0.0000000000000000e+00  -4.9566436921850308e-03 -5.4027730044412504e-02 0.0000000000000000e+00  -5.3337668232399989e-03 -5.5861489007237218e-02 0.0000000000000000e+00  -5.7055985756872809e-03 -5.7699805962099615e-02 0.0000000000000000e+00  -6.0722048039491029e-03 -5.9544678749690168e-02 0.0000000000000000e+00  -6.4364856913040657e-03 -6.1393576986420687e-02 0.0000000000000000e+00  -6.7951466642789784e-03 -6.3248045096509165e-02 0.0000000000000000e+00  -7.1492807945654257e-03 -6.5111172932954889e-02 0.0000000000000000e+00  -7.5041760645807153e-03 -6.6980946363601052e-02 0.0000000000000000e+00  -7.8579818288304123e-03 -6.8858613041281130e-02 0.0000000000000000e+00  -8.2121076179835772e-03 -7.0747632670504282e-02 0.0000000000000000e+00  -8.5717760858590106e-03 -7.2645324821849058e-02 0.0000000000000000e+00  -8.9345944317543585e-03 -7.4553810837539911e-02 0.0000000000000000e+00  -9.3024905740595517e-03 -7.6476453031801922e-02 0.0000000000000000e+00  -9.6785651789717177e-03 -7.8412745716854762e-02 0.0000000000000000e+00  -1.0061333793054303e-02 -8.0360992049552757e-02 0.0000000000000000e+00  -1.0455485838611403e-02 -8.2325218164150879e-02 0.0000000000000000e+00  -1.0861391024693001e-02 -8.4308723564974972e-02 0.0000000000000000e+00  -1.1270360521609143e-02 -8.6300502828173517e-02 0.0000000000000000e+00  -1.1693676110089833e-02 -8.8314069443913457e-02 0.0000000000000000e+00  -1.2124206288556786e-02 -9.0345225159273027e-02 0.0000000000000000e+00  -1.2568943493173348e-02 -9.2384739857252401e-02 0.0000000000000000e+00  -1.3027792716334727e-02 -9.4439407957554497e-02 0.0000000000000000e+00  -1.3491076908397260e-02 -9.6497046249494220e-02 0.0000000000000000e+00  -1.3966485155608490e-02 -9.8559535198087828e-02 0.0000000000000000e+00  -1.4448834382994718e-02 -1.0062619166312607e-01 0.0000000000000000e+00  -1.4931683333505521e-02 -1.0268932024960128e-01 0.0000000000000000e+00  -2.3274896458002816e-02 -1.0072751524602380e-01 0.0000000000000000e+00  -2.2787602762784343e-02 -9.8666929322711858e-02 0.0000000000000000e+00  -2.2298492223508933e-02 -9.6605573664178004e-02 0.0000000000000000e+00  -2.1804562656964684e-02 -9.4550637889455696e-02 0.0000000000000000e+00  -2.1310091225344014e-02 -9.2505059792071520e-02 0.0000000000000000e+00  -2.0812968498158373e-02 -9.0468632083198192e-02 0.0000000000000000e+00  -2.0318511094910945e-02 -8.8450752400901403e-02 0.0000000000000000e+00  -1.9823771555872446e-02 -8.6450609225769331e-02 0.0000000000000000e+00  -1.9338098507238766e-02 -8.4466202785852512e-02 0.0000000000000000e+00  -1.8862214328391830e-02 -8.2503350022675823e-02 0.0000000000000000e+00  -1.8393200094885286e-02 -8.0555564575247054e-02 0.0000000000000000e+00  -1.7940801684100716e-02 -7.8624872067519919e-02 0.0000000000000000e+00  -1.7502776372722996e-02 -7.6710959396561723e-02 0.0000000000000000e+00  -1.7067866948981381e-02 -7.4804622655981159e-02 0.0000000000000000e+00  -1.6650339561839242e-02 -7.2911192277254469e-02 0.0000000000000000e+00  -1.6243456636669099e-02 -7.1027878069345685e-02 0.0000000000000000e+00  -1.5840426601224818e-02 -6.9148286613753815e-02 0.0000000000000000e+00  -1.5447986045440610e-02 -6.7274807808233056e-02 0.0000000000000000e+00  -1.5058165146894094e-02 -6.5406425671282617e-02 0.0000000000000000e+00  -1.4669651427003988e-02 -6.3538770043668272e-02 0.0000000000000000e+00  -1.4282751875565894e-02 -6.1675049948738576e-02 0.0000000000000000e+00  -1.3890860425672164e-02 -5.9817041526293711e-02 0.0000000000000000e+00  -1.3496326234001148e-02 -5.7958789149362401e-02 0.0000000000000000e+00  -1.3098828824193713e-02 -5.6107722959872937e-02 0.0000000000000000e+00  -1.2694308357207636e-02 -5.4267632744391378e-02 0.0000000000000000e+00  -1.2284878290317068e-02 -5.2430048891759229e-02 0.0000000000000000e+00  -1.1873940514458109e-02 -5.0602236392229126e-02 0.0000000000000000e+00  -1.1460829316428356e-02 -4.8791322370458898e-02 0.0000000000000000e+00  -1.1044517826078657e-02 -4.6983103488796557e-02 0.0000000000000000e+00  -1.0635911170549751e-02 -4.5189798176165051e-02 0.0000000000000000e+00  -1.0231668244894960e-02 -4.3416824318409666e-02 0.0000000000000000e+00  -9.8254399180483423e-03 -4.1649721628300461e-02 0.0000000000000000e+00  -9.4317381612332146e-03 -3.9899369488654801e-02 0.0000000000000000e+00  -9.0441086240844095e-03 -3.8158589611479124e-02 0.0000000000000000e+00  -8.6644712756022181e-03 -3.6432416227616594e-02 0.0000000000000000e+00  -8.2961197257163770e-03 -3.4725910755099038e-02 0.0000000000000000e+00  -7.9265577146817260e-03 -3.3031891402076435e-02 0.0000000000000000e+00  -7.5680653666996668e-03 -3.1359817162308845e-02 0.0000000000000000e+00  -7.2102943895438146e-03 -2.9710190148551939e-02 0.0000000000000000e+00  -6.8564157638178495e-03 -2.8088157480857329e-02 0.0000000000000000e+00  -6.5106874465807457e-03 -2.6497314051807219e-02 0.0000000000000000e+00  -6.1765031806595627e-03 -2.4929739903457530e-02 0.0000000000000000e+00  -5.8529429379984826e-03 -2.3401738094745959e-02 0.0000000000000000e+00  -5.5208649279114225e-03 -2.1906811546406231e-02 0.0000000000000000e+00  -5.2153935343270908e-03 -2.0454413844561287e-02 0.0000000000000000e+00  -4.9084085036637899e-03 -1.9049566403710222e-02 0.0000000000000000e+00  -4.6245562742580079e-03 -1.7674605227706131e-02 0.0000000000000000e+00  -4.3494937156163841e-03 -1.6350930351666570e-02 0.0000000000000000e+00  -4.0907289341617576e-03 -1.5055927492702117e-02 0.0000000000000000e+00  -3.8447028099493348e-03 -1.3808848926726902e-02 0.0000000000000000e+00  -3.5851757437639817e-03 -1.2598668325624869e-02 0.0000000000000000e+00  -3.3523615529976710e-03 -1.1436368389549862e-02 0.0000000000000000e+00  -3.1082647484558957e-03 -1.0331787080843003e-02 0.0000000000000000e+00  -2.8919897424327335e-03 -9.2678642741387384e-03 0.0000000000000000e+00  -2.6785646525756299e-03 -8.2770926826860724e-03 0.0000000000000000e+00  -2.4616179963270384e-03 -7.3034930668543991e-03 0.0000000000000000e+00  -2.2654126101026829e-03 -6.4074199386300826e-03 0.0000000000000000e+00  -2.0508585218126261e-03 -5.5635912896664181e-03 0.0000000000000000e+00  -1.8672730193662645e-03 -4.7692700464198722e-03 0.0000000000000000e+00  -1.6851353440346078e-03 -4.0489475448315573e-03 0.0000000000000000e+00  -1.5142303735382597e-03 -3.3691979367646567e-03 0.0000000000000000e+00  -1.3521504186350341e-03 -2.7603092599565310e-03 0.0000000000000000e+00  -1.1730447366552685e-03 -2.2004359555648752e-03 0.0000000000000000e+00  -1.0254616243633313e-03 -1.7037330377325606e-03 0.0000000000000000e+00  -8.5791968085026013e-04 -1.2718331493900795e-03 0.0000000000000000e+00  -7.1528333438134796e-04 -9.1352982813987802e-04 0.0000000000000000e+00  -5.5571819218517323e-04 -6.1942457109557506e-04 0.0000000000000000e+00  -4.1277456208802757e-04 -3.7146985750102177e-04 0.0000000000000000e+00  -2.7427801608462992e-04 -1.9944918240074737e-04 0.0000000000000000e+00  -1.3617255923658632e-04 -1.1354328712925050e-04 0.0000000000000000e+00  -2.1673716772830968e-02 -1.0327968583939405e-01 0.0000000000000000e+00  -1.7503756871534853e-02 -1.0426047585424686e-01 0.0000000000000000e+00  1.9183279823452399e-05 -1.1183871648725726e-04 0.0000000000000000e+00  -1.4209369910799106e-02 -8.0468214620024500e-02 0.0000000000000000e+00  -1.6498435058274384e-02 -9.0565275971632067e-02 0.0000000000000000e+00  2.6499841614478925e-05 -1.1366548734188348e-03 0.0000000000000000e+00  -1.1904798876198414e-02 -6.9136797270101219e-02 0.0000000000000000e+00  -1.3052909475090368e-02 -7.4819646458066602e-02 0.0000000000000000e+00  -2.2608591402631606e-04 -2.8797449985724856e-03 0.0000000000000000e+00  -1.8086114706713445e-02 -9.6542939749890949e-02 0.0000000000000000e+00  -3.2903725307673059e-04 -5.1704193117859667e-03 0.0000000000000000e+00  -6.8211824526283229e-04 -1.0326919690555726e-02 0.0000000000000000e+00  -1.0789801375275378e-02 -6.3517841483391180e-02 0.0000000000000000e+00  -1.3947280864847079e-03 -1.4709914401205355e-02 0.0000000000000000e+00  -9.6568515063444969e-03 -5.7944327736933213e-02 0.0000000000000000e+00  -1.9671459983667669e-03 -1.8887174818215832e-02 0.0000000000000000e+00  -2.8882042306042706e-03 -2.4640949420125957e-02 0.0000000000000000e+00  -8.5826869905954017e-03 -5.2256162787877272e-02 0.0000000000000000e+00  -7.2241566589779050e-03 -4.6849032488660000e-02 0.0000000000000000e+00  -3.6787246485473503e-03 -2.9337089807492101e-02 0.0000000000000000e+00  -4.6724224526235539e-03 -3.4511585566982722e-02 0.0000000000000000e+00  -6.0294340353944419e-03 -4.1264851195386691e-02 0.0000000000000000e+00  -4.8516098352260298e-04 -6.8797534088997376e-03 0.0000000000000000e+00  -1.5566201297466770e-02 -8.6557680568186177e-02 0.0000000000000000e+00  -5.3057842771891588e-03 -3.7481442252115020e-02 0.0000000000000000e+00  -1.0964423950178578e-03 -1.2580304896526262e-02 0.0000000000000000e+00  -2.4096765797569399e-03 -2.2015741187869167e-02 0.0000000000000000e+00  -7.9050978938285913e-05 -1.9485756332872748e-03 0.0000000000000000e+00  -1.9447948944811055e-02 -9.9894705334772585e-02 0.0000000000000000e+00  7.8274570149880151e-05 -5.0294518320621981e-04 0.0000000000000000e+00  -7.0027525277330258e-03 -4.9740641854825456e-02 0.0000000000000000e+00  -9.3254181941976131e-03 -6.0774776879067481e-02 0.0000000000000000e+00  -1.0432288712505693e-02 -6.6368726255535068e-02 0.0000000000000000e+00  -4.0179633656700900e-03 -2.6888280198390596e-02 0.0000000000000000e+00  -8.1816645687858083e-03 -5.5227983804182493e-02 0.0000000000000000e+00  -1.1543181233833575e-02 -7.2019144198110147e-02 0.0000000000000000e+00  -5.8384929527884946e-03 -4.4328920422621390e-02 0.0000000000000000e+00  -1.2706572697047924e-02 -7.7754828389195299e-02 0.0000000000000000e+00  -4.9474484346775484e-03 -3.1821248004377994e-02 0.0000000000000000e+00  -2.2596146646650600e-03 -1.6584455417490401e-02 0.0000000000000000e+00  -5.5576678244150912e-04 -4.0693908571818663e-03 0.0000000000000000e+00  -1.8095218933601991e-02 -9.3256511043404017e-02 0.0000000000000000e+00  -1.5993865328966336e-02 -8.3109085809091057e-02 0.0000000000000000e+00  -7.8292040921278656e-05 -8.4999003652979164e-03 0.0000000000000000e+00  -1.3136525167376775e-02 -8.2898051091172903e-02 0.0000000000000000e+00  -1.4880798117755853e-03 -8.7789187257178679e-03 0.0000000000000000e+00  -1.5286556921845130e-02 -7.8086312324477644e-02 0.0000000000000000e+00  -1.4065169899124878e-02 -7.2360784378577403e-02 0.0000000000000000e+00  -1.2912789939493293e-02 -6.6714398680941214e-02 0.0000000000000000e+00  -1.5773067516591920e-02 -9.4754221779748987e-02 0.0000000000000000e+00  3.3379548765274795e-04 -3.8356015913900928e-03 0.0000000000000000e+00  -1.0609586725357950e-02 -5.5556369798744780e-02 0.0000000000000000e+00  -1.1776720970869443e-02 -6.1114254872180085e-02 0.0000000000000000e+00  -1.9468336959710265e-03 -2.6523824006649436e-02 0.0000000000000000e+00  -5.5155786424179157e-04 -1.6227503632618941e-02 0.0000000000000000e+00  -9.0468431885579285e-03 -4.8454870260068041e-02 0.0000000000000000e+00  -8.1968697543595512e-03 -4.4656280728148680e-02 0.0000000000000000e+00  -2.7621864989145358e-03 -3.1461803861214131e-02 0.0000000000000000e+00  -5.7364153097261019e-05 -4.5029749584429119e-05 0.0000000000000000e+00  4.7118469023813039e-05 -3.7870443465854054e-05 0.0000000000000000e+00  -4.4151548358194658e-03 -4.0150198955225598e-02 0.0000000000000000e+00  -3.2303696138736115e-03 -1.9851631465977244e-02 0.0000000000000000e+00  -1.8577744400745287e-03 -1.1027810757222960e-02 0.0000000000000000e+00  -4.0235246826761937e-04 -1.4604673849649029e-03 0.0000000000000000e+00  -5.5351357813312942e-04 -2.4820784265252244e-03 0.0000000000000000e+00  -3.6590307122739102e-03 -3.6573599774841599e-02 0.0000000000000000e+00  -2.1986982926020479e-03 -1.3291598642099974e-02 0.0000000000000000e+00  -3.8187585013541069e-03 -2.2853566887148662e-02 0.0000000000000000e+00  -1.0946976331584113e-03 -6.1737731641919339e-03 0.0000000000000000e+00  -1.4370856308061284e-02 -8.8432876682805833e-02 0.0000000000000000e+00  -1.7538547669925127e-02 -8.7827772445702626e-02 0.0000000000000000e+00  2.4831779195685791e-04 -6.2365564766342961e-03 0.0000000000000000e+00  -2.7272600184313089e-04 -6.9018115309219463e-04 0.0000000000000000e+00  -1.6373906380878527e-02 -9.8935286585121088e-02 0.0000000000000000e+00  -7.3236109884274835e-03 -3.9506092211205358e-02 0.0000000000000000e+00  -6.4199686274976700e-03 -3.5901997956359517e-02 0.0000000000000000e+00  1.3581321588421332e-04 -1.1189534377375132e-02 0.0000000000000000e+00  3.6834469583625921e-04 -1.4762884010774560e-03 0.0000000000000000e+00  4.3204576645380639e-04 -2.5797984511816262e-03 0.0000000000000000e+00  -8.4523494323792846e-04 -2.0261850338197187e-02 0.0000000000000000e+00  3.7555360552631183e-05 -1.3533784532383237e-02 0.0000000000000000e+00  -1.0505414665771967e-03 -2.3242593936045539e-02 0.0000000000000000e+00  -1.6739381612812523e-04 -3.5779229790035364e-04 0.0000000000000000e+00  -1.7345626742909515e-02 -1.0179937795966537e-01 0.0000000000000000e+00  -1.4985360767558029e-02 -7.5783947179408923e-02 0.0000000000000000e+00  -1.3791871352941755e-02 -7.0097116761280262e-02 0.0000000000000000e+00  3.7817627269844253e-04 -4.7101111430781512e-03 0.0000000000000000e+00  -1.2649547875762458e-02 -6.4473017318149639e-02 0.0000000000000000e+00  -1.5023932518115927e-02 -9.2392665652093878e-02 0.0000000000000000e+00  -1.1503329910267382e-02 -5.8888731190604754e-02 0.0000000000000000e+00  -1.0322390823725876e-02 -5.3368027928379566e-02 0.0000000000000000e+00  -6.0565282854836591e-04 -1.7839434977735519e-02 0.0000000000000000e+00  -9.6954514601558291e-03 -5.0539469525113630e-02 0.0000000000000000e+00  -2.1035343137936540e-03 -2.8459724262534590e-02 0.0000000000000000e+00  -7.9151514831341165e-03 -4.2524328717211207e-02 0.0000000000000000e+00  -2.9528879945644013e-03 -3.3490544028907554e-02 0.0000000000000000e+00  -2.0056991263340988e-02 -9.7720196750804428e-02 0.0000000000000000e+00  -1.3394925149754100e-02 -8.5251218106968035e-02 0.0000000000000000e+00  -1.4307551859186638e-03 -7.6171214808172559e-03 0.0000000000000000e+00  2.9814981864494247e-04 -7.7036538550698393e-04 0.0000000000000000e+00  1.6239261361973491e-04 -2.9251391471680463e-04 0.0000000000000000e+00  -5.7587096075138629e-03 -4.8178894403372384e-02 0.0000000000000000e+00  -6.0175185870708558e-03 -3.3265245977639080e-02 0.0000000000000000e+00  -6.9252888889357730e-03 -5.3647377180357024e-02 0.0000000000000000e+00  -1.0299944494146977e-02 -7.0369990387718281e-02 0.0000000000000000e+00  -8.1048991444224866e-03 -5.9161608405095323e-02 0.0000000000000000e+00  -9.2086433635461436e-03 -6.4737808308789543e-02 0.0000000000000000e+00  -4.8456942857466418e-03 -2.8423046170758724e-02 0.0000000000000000e+00  -4.6932785315216222e-03 -4.2813964090772809e-02 0.0000000000000000e+00  -3.0611416850279106e-03 -1.7782775926206779e-02 0.0000000000000000e+00  -4.4907659439058934e-03 -2.5235991242890478e-02 0.0000000000000000e+00  -1.2153873588713731e-02 -7.9834080135778654e-02 0.0000000000000000e+00  -2.6916137581445773e-03 -1.5244349395581917e-02 0.0000000000000000e+00  -1.1684061115244195e-02 -7.5951130495137201e-02 0.0000000000000000e+00  -9.8321944727469777e-04 -4.7404309247140817e-03 0.0000000000000000e+00  -7.9859851394650794e-04 -3.3861964308203015e-03 0.0000000000000000e+00  -1.9443038339533845e-02 -9.4861656548037576e-02 0.0000000000000000e+00  -1.8619289201082287e-02 -9.1054901894203830e-02 0.0000000000000000e+00  -1.0317242281874269e-02 -6.8437480047595353e-02 0.0000000000000000e+00  -9.2219104641533649e-03 -6.2825228756258358e-02 0.0000000000000000e+00  -6.8281901155320106e-03 -5.1709125945462175e-02 0.0000000000000000e+00  -1.1330752695451122e-02 -7.4078938967985522e-02 0.0000000000000000e+00  -8.1002404029115321e-03 -5.7263408792088168e-02 0.0000000000000000e+00  -5.6322357383539433e-03 -4.6277739804834662e-02 0.0000000000000000e+00  -5.1362696362186894e-03 -3.0028070399488935e-02 0.0000000000000000e+00  3.3873870746665367e-04 -7.6079812500275384e-03 0.0000000000000000e+00  -1.7162544631397072e-02 -8.4823025426536219e-02 0.0000000000000000e+00  -1.6244211754120545e-02 -8.1103710514057015e-02 0.0000000000000000e+00  2.0405075