<?xml version="1.0"?>
<VTKFile type="UnstructuredGrid"  version="0.1"  >
<UnstructuredGrid>
<Piece  NumberOfPoints="439" NumberOfCells="725">
<Points>
<DataArray  type="Float64"  NumberOfComponents="3"  format="ascii">0.5998180077453995 0.1800589601959091 0  0.6001928824113735 0.19991078782801 0  0.2489897949 0.21 0  0.2489897949 0.19 0  0.6000047871327229 0.1899851216775368 0  0.2496355385699469 0.2060260530378829 0  0.249959460510575 0.2020130349814059 0  0.2499594605105767 0.1979869650186357 0  0.24963553856995 0.1939739469621422 0  0.2539900360099794 0.2099430651297186 0  0.2589880587030039 0.2098889322816224 0  0.2639828898505631 0.2098248248638353 0  0.2689718721021348 0.2097314819066663 0  0.2739548227884254 0.2096253698400862 0  0.2789351506406368 0.2095008912583876 0  0.2839096239575051 0.2093701765009663 0  0.2888784013469926 0.2092274017397476 0  0.293844332680024 0.2090775508475018 0  0.2988067522997374 0.2089221230101086 0  0.3037666539395291 0.2087610049027998 0  0.3087253644028783 0.2085991604602672 0  0.313679947846065 0.2084320620022865 0  0.3186351250200857 0.2082621498225432 0  0.3235878360486917 0.2080908052064404 0  0.3285407770295671 0.2079156393522247 0  0.3334934056882866 0.2077381827738954 0  0.3384456177572671 0.2075562295550189 0  0.3433979266181101 0.2073712330523498 0  0.3483501461788387 0.2071805499085686 0  0.3533021405197039 0.2069854349170977 0  0.358253962442896 0.2067856827608069 0  0.3632083342859674 0.2065777450109689 0  0.3681631233762439 0.206369740901781 0  0.373118262891227 0.2061555793386299 0  0.3780730489449824 0.2059387574543663 0  0.3830280978627092 0.2057182785464147 0  0.3879819350055879 0.2054948213288838 0  0.3929338553379716 0.2052697743900186 0  0.397881409072857 0.205043601916521 0  0.4028272739579288 0.2048174044118649 0  0.4077678848982805 0.2045947168879532 0  0.4127037324071756 0.2043793865360309 0  0.4176374761369148 0.2041674876991241 0  0.4225687001563884 0.2039683776193193 0  0.427496255990558 0.2037793278614617 0  0.4324261116816761 0.203601867220503 0  0.4373534263097837 0.2034384451345199 0  0.4422851000594429 0.2032828212082358 0  0.4472183631741284 0.2031388232468142 0  0.4521525053848947 0.203001616856124 0  0.4570881314413582 0.2028719067742591 0  0.4620273190595529 0.2027458416966154 0  0.4669668348415373 0.2026227231078083 0  0.471906553202835 0.2025032291526622 0  0.4768495688307305 0.2023842808415566 0  0.4817915402932333 0.2022670978125621 0  0.4867324633893284 0.2021526229663587 0  0.4916771551930243 0.2020405830514989 0  0.4966211456043552 0.2019312841437442 0  0.5015649488314574 0.2018258680610211 0  0.5065128029611659 0.2017255094677314 0  0.5114617113266242 0.2016284198983619 0  0.5164121538322238 0.2015347649823656 0  0.5213647815394734 0.2014446424884433 0  0.526318227159183 0.2013556384073285 0  0.5312716353557578 0.2012674358278625 0  0.5362237650615668 0.2011791412569937 0  0.5411717369112348 0.2010911103336672 0  0.5461147779529393 0.2009997708990862 0  0.5510546947594983 0.2009045896970999 0  0.5559905372412197 0.2008121055417909 0  0.5609150841767588 0.2007125948933889 0  0.5658365647634602 0.2006137231167641 0  0.5707504385546629 0.2005148001761941 0  0.5756604395918663 0.200411518777708 0  0.5805679623263896 0.2003119304089111 0  0.5854728337023356 0.2002094093172418 0  0.590378167176665 0.2001081392328763 0  0.5952850397570756 0.2000085119392248 0  0.5949149675146336 0.1801500141653026 0  0.5900176439340054 0.1802409077160516 0  0.585122890660562 0.1803330438626423 0  0.580228388542233 0.1804188392047784 0  0.5753330646158826 0.1804999805495859 0  0.5704314535111182 0.180578960032783 0  0.5655223005286333 0.180652287897334 0  0.5606074043127223 0.1807214821856027 0  0.555679635308623 0.1807931168475535 0  0.5507438065076289 0.1808628787683477 0  0.5457985003090721 0.1809375147204097 0  0.5408445487224316 0.1810128659114784 0  0.5358873988990853 0.1810921379384435 0  0.5309250697368394 0.1811789122450885 0  0.5259580451242322 0.181267393140585 0  0.5209912900788156 0.1813622389881537 0  0.5160229142903083 0.1814631101871568 0  0.5110564283009902 0.181566122860144 0  0.5060914724599954 0.1816754406532446 0  0.5011272582396222 0.1817868383430988 0  0.4961684211411124 0.1819000573119142 0  0.4912096464475236 0.182018088832361 0  0.486251574255319 0.1821338496560121 0  0.4812982301456833 0.1822523782451943 0  0.4763421836630367 0.1823754979638404 0  0.4713848376360111 0.1824956266893121 0  0.4664295854367527 0.1826201029866946 0  0.461469790375689 0.1827510630156839 0  0.4565084741286349 0.1828803663089706 0  0.4515483970377539 0.1830190882779291 0  0.4465841237521764 0.1831697361560989 0  0.4416168362311879 0.1833216746396265 0  0.4366511975176858 0.1834874851616745 0  0.4316861261922328 0.1836599471773465 0  0.4267223853504311 0.1838432811289566 0  0.4217606185128132 0.1840371023545218 0  0.4167988750602259 0.1842373167255864 0  0.4118389051387545 0.1844463606859963 0  0.4068801673510807 0.1846599057780577 0  0.4019240129307712 0.184878475564197 0  0.3969705721889567 0.1850999417536254 0  0.3920188687886765 0.1853237194087901 0  0.3870686822796569 0.185548456690052 0  0.3821222859337735 0.1857730867980038 0  0.3771777118593134 0.1859958898279196 0  0.3722385309766506 0.1862154498153215 0  0.3673011550551939 0.186431647338467 0  0.362367765471619 0.186640835639171 0  0.3574352752386842 0.1868452226905225 0  0.3525035490338125 0.1870420096371261 0  0.3475740197288041 0.1872333740067844 0  0.3426408277522872 0.1874184257987239 0  0.3377079881608377 0.1875977797545122 0  0.3327712363332821 0.1877748714170265 0  0.3278338517109688 0.1879473634108882 0  0.3228961918369368 0.1881194013235411 0  0.3179567422193106 0.18828735177602 0  0.313018012342247 0.1884526206264142 0  0.3080770806600509 0.1886159997065155 0  0.3031359455902237 0.1887759238268716 0  0.2981948317587161 0.1889341790515917 0  0.2932549338876547 0.1890883468643685 0  0.2883194260517587 0.1892391338679755 0  0.2833843941714581 0.18938186579275 0  0.2784569299010791 0.1895171572043244 0  0.2735310176110007 0.1896368808015095 0  0.268614983545711 0.1897439397424723 0  0.2637004454678391 0.1898387765345455 0  0.2587912054443788 0.1899112609069941 0  0.2538882247348181 0.1899542847894657 0  0.5999106435585485 0.1850214805489193 0  0.6000980088409699 0.1949479045133406 0  0.2589889357753909 0.2004863272596473 0  0.5434762085828144 0.1910396228609154 0  0.5685004624364258 0.1905818521256224 0  0.2775087520562159 0.2003525673064495 0  0.5140987477249841 0.1914485873715691 0  0.5289788702990843 0.1911821811134157 0  0.2945584119412983 0.1983522107685318 0  0.5829170981256243 0.1898738264899513 0  0.3105008547352964 0.1985136482211951 0  0.3371285226227805 0.1984464419521552 0  0.4992298216505988 0.1917489188673638 0  0.3553744158331756 0.1969215661989409 0  0.484378845797496 0.192081252097627 0  0.3708286305174411 0.1962863349840845 0  0.3900036422157696 0.1954085807385272 0  0.4691558601876665 0.1920830199816459 0  0.4543250478075702 0.1929253596282274 0  0.4044921353540099 0.1948446839806839 0  0.4196936077334252 0.1940880871773606 0  0.4388533138885194 0.1933672550504419 0  0.3203422881034528 0.1982191019280878 0  0.5587164002297146 0.1907787220398404 0  0.4282057442445786 0.1936037657570351 0  0.3468679869923569 0.1974063634276657 0  0.3814812622326365 0.1959476732068686 0  0.2861232659463172 0.1993569268839279 0  0.5911645031798275 0.1884163708947958 0  0.2680397094783586 0.2014525140827814 0  0.4618109738463412 0.1949807845156326 0  0.491490821718912 0.1942722790184534 0  0.5063452028854727 0.1939553290291029 0  0.3973289853198881 0.1928245117252064 0  0.4766496748187996 0.1946163246468739 0  0.5212168138993682 0.1936741044823037 0  0.4469739949640641 0.1953827804506767 0  0.5360880626441504 0.1934195795973628 0  0.4121788661304907 0.1921596264231947 0  0.3626926802434723 0.1943731274766531 0  0.3033823556099672 0.1965259047952714 0  0.5754547224584088 0.1882356701754348 0  0.550743490812686 0.188039448512671 0  0.3283912035165616 0.2007998679693289 0  0.5488125417878383 0.1947980201834456 0  0.3301942175681946 0.1940259314808328 0  0.5381783730908007 0.1872311507312835 0  0.5232989418283284 0.18748466034275 0  0.5084130328425005 0.1877699445284892 0  0.5777285682072374 0.1942884780455232 0  0.3013798725504514 0.2027173354498991 0  0.478688975961797 0.1884342639447493 0  0.493543529747249 0.1880895677768689 0  0.3954110107405013 0.199033307327922 0  0.3607587996579544 0.2005700739238125 0  0.459446709960447 0.1889133728248095 0  0.4489723711094154 0.1892023315599131 0  0.4102493653153282 0.198360629045052 0  0.255771809876683 0.1960552384423458 0  0.255036076675803 0.203414008493107 0  0.4350877010544899 0.1972788304907817 0  0.3745625890314009 0.1923365387242718 0  0.3405751364292843 0.1935401244952952 0  0.281249472623303 0.1955014362529509 0  0.2912212052190048 0.1952436958847455 0  0.4249695468677275 0.1978273150561995 0  0.3501022877137828 0.1931812822790411 0  0.384696582597242 0.191699962343184 0  0.3165963627093044 0.1944967278639368 0  0.5625119737887628 0.1944940487156917 0  0.5626748908675532 0.1867911660123385 0  0.3164617319710065 0.2022097072661065 0  0.271039235690348 0.1956796595138779 0  0.5874922005919193 0.1949278904529178 0  0.4346536734151858 0.1889982714504766 0  0.4243101057262464 0.1897884744028227 0  0.3405332001928816 0.2022819412245582 0  0.2810315505859549 0.2042339268205094 0  0.2916078009950909 0.2039322470246783 0  0.3750661634852875 0.2006143105009253 0  0.3502197209574725 0.2022932515668319 0  0.3848690129658959 0.2008150462383325 0  0.264780444681028 0.1960448206408426 0  0.5944469384913859 0.19410827771988 0  0.5323310102193793 0.1868436672050401 0  0.5174440773091235 0.1871088134098029 0  0.3072168220357732 0.2029983421687272 0  0.5025623566194691 0.1874096756454775 0  0.5719693782346851 0.1948739018826095 0  0.487699222662803 0.1877415889940529 0  0.4728890326047154 0.1880891942780533 0  0.366606327287642 0.200815159021844 0  0.4652
[...]
<PointData  Vectors="d"> 
<DataArray  type="Float64"  Name="d"  NumberOfComponents="3" format="ascii">-1.8199225460017009e-04 -9.9410398040909106e-03 0.0000000000000000e+00  1.9288241137346498e-04 -1.0089212171990006e-02 0.0000000000000000e+00  0.0000000000000000e+00 0.0000000000000000e+00 0.0000000000000000e+00  0.0000000000000000e+00 0.0000000000000000e+00 0.0000000000000000e+00  4.7871327228705603e-06 -1.0014878322463330e-02 0.0000000000000000e+00  0.0000000000000000e+00 0.0000000000000000e+00 0.0000000000000000e+00  0.0000000000000000e+00 0.0000000000000000e+00 0.0000000000000000e+00  0.0000000000000000e+00 0.0000000000000000e+00 0.0000000000000000e+00  0.0000000000000000e+00 0.0000000000000000e+00 0.0000000000000000e+00  5.6435404350339084e-05 -5.6934870281358244e-05 0.0000000000000000e+00  1.1065239174970581e-04 -1.1106771837755579e-04 0.0000000000000000e+00  1.6167783367103766e-04 -1.7517513616459603e-04 0.0000000000000000e+00  2.0685437960485647e-04 -2.6851809333367123e-04 0.0000000000000000e+00  2.4599936026834207e-04 -3.7463015991383812e-04 0.0000000000000000e+00  2.8252150686135566e-04 -4.9910874161242832e-04 0.0000000000000000e+00  3.1318911811141991e-04 -6.2982349903363273e-04 0.0000000000000000e+00  3.3816080197596724e-04 -7.7259826025242128e-04 0.0000000000000000e+00  3.6028642937180317e-04 -9.2244915249819549e-04 0.0000000000000000e+00  3.7890034346650762e-04 -1.0778769898914990e-03 0.0000000000000000e+00  3.9499627762938969e-04 -1.2389950972003228e-03 0.0000000000000000e+00  4.0990103536032681e-04 -1.4008395397326577e-03 0.0000000000000000e+00  4.2067877292844007e-04 -1.5679379977135241e-03 0.0000000000000000e+00  4.3205024133076197e-04 -1.7378501774567652e-03 0.0000000000000000e+00  4.4095556431847415e-04 -1.9091947935595533e-03 0.0000000000000000e+00  4.5009083957551447e-04 -2.0843606477752978e-03 0.0000000000000000e+00  4.5891379266574530e-04 -2.2618172261046057e-03 0.0000000000000000e+00  4.6732015603856907e-04 -2.4437704449810599e-03 0.0000000000000000e+00  4.7582331125250587e-04 -2.6287669476500394e-03 0.0000000000000000e+00  4.8423716636281902e-04 -2.8194500914314044e-03 0.0000000000000000e+00  4.9242580160939193e-04 -3.0145650829023485e-03 0.0000000000000000e+00  5.0044201918351787e-04 -3.2143172391931587e-03 0.0000000000000000e+00  5.1100815663646928e-04 -3.4222549890310177e-03 0.0000000000000000e+00  5.2199154129429104e-04 -3.6302590982188960e-03 0.0000000000000000e+00  5.3332535064828110e-04 -3.8444206613700801e-03 0.0000000000000000e+00  5.4430569879475679e-04 -4.0612425456337453e-03 0.0000000000000000e+00  5.5554891089703825e-04 -4.2817214535853833e-03 0.0000000000000000e+00  5.6558034815405354e-04 -4.5051786711161222e-03 0.0000000000000000e+00  5.7369497490840880e-04 -4.7302256099814206e-03 0.0000000000000000e+00  5.7744300418649346e-04 -4.9563980834790326e-03 0.0000000000000000e+00  5.7950218363037227e-04 -5.1825955881352748e-03 0.0000000000000000e+00  5.7630741836966256e-04 -5.4052831120467472e-03 0.0000000000000000e+00  5.6834922164466953e-04 -5.6206134639691461e-03 0.0000000000000000e+00  5.5828724576311448e-04 -5.8325123008759212e-03 0.0000000000000000e+00  5.4570555962483178e-04 -6.0316223806807000e-03 0.0000000000000000e+00  5.2945568816606197e-04 -6.2206721385382078e-03 0.0000000000000000e+00  5.1550567365107403e-04 -6.3981327794970441e-03 0.0000000000000000e+00  4.9901459610641281e-04 -6.5615548654801119e-03 0.0000000000000000e+00  4.8688264011009119e-04 -6.7171787917641159e-03 0.0000000000000000e+00  4.7634004913161692e-04 -6.8611767531856259e-03 0.0000000000000000e+00  4.6667655425015338e-04 -6.9983831438759914e-03 0.0000000000000000e+00  4.5849690507179488e-04 -7.1280932257410555e-03 0.0000000000000000e+00  4.5387881763682376e-04 -7.2541583033846431e-03 0.0000000000000000e+00  4.4958889397066432e-04 -7.3772768921917106e-03 0.0000000000000000e+00  4.4550154963513689e-04 -7.4967708473377579e-03 0.0000000000000000e+00  4.4471147186376191e-04 -7.6157191584433686e-03 0.0000000000000000e+00  4.4287722872000262e-04 -7.7329021874378455e-03 0.0000000000000000e+00  4.3999461915219141e-04 -7.8473770336412816e-03 0.0000000000000000e+00  4.4088071721782365e-04 -7.9594169485011391e-03 0.0000000000000000e+00  4.4106542289414405e-04 -8.0687158562557214e-03 0.0000000000000000e+00  4.4106294436802859e-04 -8.1741319389788698e-03 0.0000000000000000e+00  4.4511136841681440e-04 -8.2744905322685164e-03 0.0000000000000000e+00  4.5021402823668523e-04 -8.3715801016380764e-03 0.0000000000000000e+00  4.5685082821960717e-04 -8.4652350176344787e-03 0.0000000000000000e+00  4.6567282983186391e-04 -8.5553575115567392e-03 0.0000000000000000e+00  4.7531274388228539e-04 -8.6443615926714169e-03 0.0000000000000000e+00  4.8491523481849683e-04 -8.7325641721375368e-03 0.0000000000000000e+00  4.9323923496810316e-04 -8.8208587430063292e-03 0.0000000000000000e+00  4.9740537899807145e-04 -8.9088896663327699e-03 0.0000000000000000e+00  4.9664071508608541e-04 -9.0002291009137307e-03 0.0000000000000000e+00  4.9275181600760018e-04 -9.0954103029002135e-03 0.0000000000000000e+00  4.8478859207397827e-04 -9.1878944582090092e-03 0.0000000000000000e+00  4.6552982197020361e-04 -9.2874051066111699e-03 0.0000000000000000e+00  4.4320470301183440e-04 -9.3862768832358359e-03 0.0000000000000000e+00  4.1327278855142171e-04 -9.4851998238058306e-03 0.0000000000000000e+00  3.7946812012034660e-04 -9.5884812222920557e-03 0.0000000000000000e+00  3.4318514900608365e-04 -9.6880695910889422e-03 0.0000000000000000e+00  3.0425081930150706e-04 -9.7905906827582302e-03 0.0000000000000000e+00  2.6577858798430929e-04 -9.8918607671237627e-03 0.0000000000000000e+00  2.2884546273496288e-04 -9.9914880607753324e-03 0.0000000000000000e+00  -1.4122677974969316e-04 -9.8499858346973671e-03 0.0000000000000000e+00  -9.4744654752628091e-05 -9.7590922839483653e-03 0.0000000000000000e+00  -4.5692222557380960e-05 -9.6669561373577562e-03 0.0000000000000000e+00  3.6113647602779563e-06 -9.5811607952215154e-03 0.0000000000000000e+00  5.2093144031080415e-05 -9.5000194504141731e-03 0.0000000000000000e+00  9.4287744886735207e-05 -9.4210399672170781e-03 0.0000000000000000e+00  1.2894046801487376e-04 -9.3477121026660451e-03 0.0000000000000000e+00  1.5784995773354224e-04 -9.2785178143972667e-03 0.0000000000000000e+00  1.7388665926510894e-04 -9.2068831524465024e-03 0.0000000000000000e+00  1.8186356392521641e-04 -9.1371212316523429e-03 0.0000000000000000e+00  1.8036307096765361e-04 -9.0624852795902142e-03 0.0000000000000000e+00  1.7021718992692655e-04 -8.9871340885216092e-03 0.0000000000000000e+00  1.5687307218934082e-04 -8.9078620615565748e-03 0.0000000000000000e+00  1.3834961557652634e-04 -8.8210877549114546e-03 0.0000000000000000e+00  1.1513070856951813e-04 -8.7326068594149407e-03 0.0000000000000000e+00  9.2181368791231593e-05 -8.6377610118462747e-03 0.0000000000000000e+00  6.7611285886347026e-05 -8.5368898128432152e-03 0.0000000000000000e+00  4.4931002167595056e-05 -8.4338771398559526e-03 0.0000000000000000e+00  2.3780866778007431e-05 -8.3245593467553836e-03 0.0000000000000000e+00  3.3723520417801026e-06 -8.2131616569011360e-03 0.0000000000000000e+00  -1.1659040859648940e-05 -8.0999426880858112e-03 0.0000000000000000e+00  -2.6628028829459663e-05 -7.9819111676389821e-03 0.0000000000000000e+00  -4.0894515415413425e-05 -7.8661503439878197e-03 0.0000000000000000e+00  -5.0432919421197807e-05 -7.7476217548057124e-03 0.0000000000000000e+00  -6.2673696459841744e-05 -7.6245020361595242e-03 0.0000000000000000e+00  -7.6214017857312877e-05 -7.5043733106879831e-03 0.0000000000000000e+00  -8.7660511502779529e-05 -7.3798970133053601e-03 0.0000000000000000e+00  -1.0364986694601711e-04 -7.2489369843159648e-03 0.0000000000000000e+00  -1.2116040837532571e-04 -7.1196336910293746e-03 0.0000000000000000e+00  -1.3743179362697724e-04 -6.9809117220708062e-03 0.0000000000000000e+00  -1.5789937359529511e-04 -6.8302638439010997e-03 0.0000000000000000e+00  -1.8138118895869962e-04 -6.6783253603735710e-03 0.0000000000000000e+00  -2.0321419684388558e-04 -6.5125148383254746e-03 0.0000000000000000e+00  -2.2447981668031526e-04 -6.3400528226535153e-03 0.0000000000000000e+00  -2.4441495285541765e-04 -6.1567188710432881e-03 0.0000000000000000e+00  -2.6237608483504571e-04 -5.9628976454781336e-03 0.0000000000000000e+00  -2.8031383177972650e-04 -5.7626832744136231e-03 0.0000000000000000e+00  -2.9647804760482885e-04 -5.5536393140037570e-03 0.0000000000000000e+00  -3.1141012961890093e-04 -5.3400942219423396e-03 0.0000000000000000e+00  -3.2375884427651415e-04 -5.1215244358030852e-03 0.0000000000000000e+00  -3.3339388043348634e-04 -4.9000582463746348e-03 0.0000000000000000e+00  -3.4129157507822692e-04 -4.6762805912098273e-03 0.0000000000000000e+00  -3.4767237845135927e-04 -4.4515433099480478e-03 0.0000000000000000e+00  -3.5026301870865200e-04 -4.2269132019961833e-03 0.0000000000000000e+00  -3.5103138751251727e-04 -4.0041101720803577e-03 0.0000000000000000e+00  -3.4640656452673206e-04 -3.7845501846784611e-03 0.0000000000000000e+00  -3.3997678031462246e-04 -3.5683526615329156e-03 0.0000000000000000e+00  -3.2956065824252099e-04 -3.3591643608289227e-03 0.0000000000000000e+00  -3.1824518552663956e-04 -3.1547773094773865e-03 0.0000000000000000e+00  -3.0616568477651615e-04 -2.9579903628740361e-03 0.0000000000000000e+00  -2.9188928412684074e-04 -2.7666259932156204e-03 0.0000000000000000e+00  -2.8127555500470012e-04 -2.5815742012760879e-03 0.0000000000000000e+00  -2.7030944081583646e-04 -2.4022202454878688e-03 0.0000000000000000e+00  -2.6325556273300017e-04 -2.2251285829733205e-03 0.0000000000000000e+00  -2.5683447940599488e-04 -2.0526365891117872e-03 0.0000000000000000e+00  -2.5068864778037919e-04 -1.8805986764589104e-03 0.0000000000000000e+00  -2.4633255974830721e-04 -1.7126482239799338e-03 0.0000000000000000e+00  -2.4125673115422708e-04 -1.5473793735859358e-03 0.0000000000000000e+00  -2.3838270770728607e-04 -1.3840002934845125e-03 0.0000000000000000e+00  -2.3571207189599578e-04 -1.2240761731284659e-03 0.0000000000000000e+00  -2.3302019776523164e-04 -1.0658209484083363e-03 0.0000000000000000e+00  -2.2911236318824655e-04 -9.1165313563140412e-04 0.0000000000000000e+00  -2.2081449342877508e-04 -7.6086613202448685e-04 0.0000000000000000e+00  -2.1204066807154474e-04 -6.1813420725002509e-04 0.0000000000000000e+00  -1.9569923279250939e-04 -4.8284279567568575e-04 0.0000000000000000e+00  -1.7780581722365540e-04 -3.6311919849043840e-04 0.0000000000000000e+00  -1.5003417687516266e-04 -2.5606025752782834e-04 0.0000000000000000e+00  -1.2076654910857685e-04 -1.6122346545446344e-04 0.0000000000000000e+00  -8.6200866930315168e-05 -8.8739093005896216e-05 0.0000000000000000e+00  -4.5375870839822886e-05 -4.5715210534358575e-05 0.0000000000000000e+00  -8.9356441451413337e-05 -9.9785194510589210e-03 0.0000000000000000e+00  9.8008840969521696e-05 -1.0052095486632259e-02 0.0000000000000000e+00  1.5509243741572749e-05 -6.6062083193072825e-05 0.0000000000000000e+00  3.2997419750718343e-04 -8.9603771390536473e-03 0.0000000000000000e+00  2.6067295960981564e-04 -9.3886064552763070e-03 0.0000000000000000e+00  5.7359344413524004e-05 -4.4162463574321453e-04 0.0000000000000000e+00  2.4916434808715406e-04 -8.4537552775227724e-03 0.0000000000000000e+00  2.9786980534631744e-04 -8.7201615356811511e-03 0.0000000000000000e+00  4.7516735533660045e-05 -9.3898007200686440e-04 0.0000000000000000e+00  1.3901498713182368e-04 -9.6691536103836601e-03 0.0000000000000000e+00  8.8015078370785966e-05 -1.4568103597026919e-03 0.0000000000000000e+00  1.2834708092549990e-04 -2.3830192912414946e-03 0.0000000000000000e+00  2.1165539055281838e-04 -8.1534237817264005e-03 0.0000000000000000e+00  9.2798262271169329e-05 -3.0784338011200572e-03 0.0000000000000000e+00  1.9209665430342299e-04 -7.8210905514579290e-03 0.0000000000000000e+00  9.1259126885975307e-05 -3.7279027112844380e-03 0.0000000000000000e+00  1.1538470552002225e-04 -4.5914192615556584e-03 0.0000000000000000e+00  1.7010513839304945e-04 -7.4586524440234791e-03 0.0000000000000000e+00  1.6731612337367359e-04 -7.0746403716822649e-03 0.0000000000000000e+00  1.3864395217678347e-04 -5.2529733702404331e-03 0.0000000000000000e+00  1.4251598946848028e-04 -5.9119128227451056e-03 0.0000000000000000e+00  1.5133602406830441e-04 -6.6185072542352431e-03 0.0000000000000000e+00  9.5013077782658901e-05 -1.7897822865521279e-03 0.0000000000000000e+00  3.1104612162930964e-04 -9.2123937455172600e-03 0.0000000000000000e+00  1.3902955586502134e-04 -6.2451390637890229e-03 0.0000000000000000e+00  1.0199236580955967e-04 -2.7447317517716625e-03 0.0000000000000000e+00  1.0862766674589586e-04 -4.2034219725833218e-03 0.0000000000000000e+00  5.4928254107351277e-05 -6.8461768669019873e-04 0.0000000000000000e+00  4.2122001707866203e-05 -9.8285450400785318e-03 0.0000000000000000e+00  5.0393332495897348e-05 -2.2261156394760991e-04 0.0000000000000000e+00  2.3753360371327084e-04 -7.2695788131677064e-03 0.0000000000000000e+00  2.5454724256669155e-04 -7.9780843103557115e-03 0.0000000000000000e+00  2.7751129227443293e-04 -8.2950342997088686e-03 0.0000000000000000e+00  2.5019251210543025e-05 -4.9251249459901078e-03 0.0000000000000000e+00  2.4481745931012464e-04 -7.6340386819311575e-03 0.0000000000000000e+00  3.1770518932257779e-04 -8.5762588465147904e-03 0.0000000000000000e+00  2.3197183829853793e-04 -6.8675828781232335e-03 0.0000000000000000e+00  3.5753681726584347e-04 -8.8307837314570859e-03 0.0000000000000000e+00  4.3482944959076457e-05 -5.5900102480029804e-03 0.0000000000000000e+00  -4.6458858629205736e-06 -3.3765091945387646e-03 0.0000000000000000e+00  1.0697948071311134e-05 -1.2237318759154316e-03 0.0000000000000000e+00  1.7375098658591916e-04 -9.5139664957155940e-03 0.0000000000000000e+00  2.8363489362987502e-04 -9.0890299610956408e-03 0.0000000000000000e+00  1.9843030187730997e-04 -2.0716535569117664e-03 0.0000000000000000e+00  3.9463973809247214e-04 -9.0423013860308071e-03 0.0000000000000000e+00  -4.0509515804311638e-05 -2.1337469497162303e-03 0.0000000000000000e+00  2.5728786698923678e-04 -8.8940309331275082e-03 0.0000000000000000e+00  2.0927372136308830e-04 -8.6405213216557680e-03 0.0000000000000000e+00  1.5478185237841166e-04 -8.3552371359205211e-03 0.0000000000000000e+00  2.5703733852830754e-04 -9.5863402900654912e-03 0.0000000000000000e+00  1.9877428549674051e-04 -1.1574828856946739e-03 0.0000000000000000e+00  9.3559205385894506e-05 -7.6909177196547414e-03 0.0000000000000000e+00  1.1669587398192418e-04 -8.0356138875373757e-03 0.0000000000000000e+00  2.9760406873826013e-04 -4.8415110076746410e-03 0.0000000000000000e+00  2.5203292554259305e-04 -3.3047444117825066e-03 0.0000000000000000e+00  6.3829114732501062e-05 -7.2118088395897208e-03 0.0000000000000000e+00  3.9788586735024789e-05 -6.9228501044875709e-03 0.0000000000000000e+00  3.0454152670629313e-04 -5.5141892905470396e-03 0.0000000000000000e+00  -1.4490103514066976e-05 -3.0598583383733182e-05 0.0000000000000000e+00  2.1340644863227598e-05 -2.8634506004478187e-05 0.0000000000000000e+00  2.8455340802093561e-04 -6.4949272733737396e-03 0.0000000000000000e+00  -7.3612577008965292e-05 -3.8897035115834709e-03 0.0000000000000000e+00  -5.0700157146318967e-05 -2.5066676986937398e-03 0.0000000000000000e+00  -5.0695495680316821e-05 -5.4535594109914813e-04 0.0000000000000000e+00  -4.7433524984370285e-05 -8.3793698018275306e-04 0.0000000000000000e+00  2.9901328573825575e-04 -6.1258927497548389e-03 0.0000000000000000e+00  -5.9888019130135220e-05 -2.8655099151466473e-03 0.0000000000000000e+00  -7.2233075027284093e-05 -4.3468298510519554e-03 0.0000000000000000e+00  -3.6005829051639295e-05 -1.6627306994331311e-03 0.0000000000000000e+00  3.5697268342156993e-04 -9.2876005442073736e-03 0.0000000000000000e+00  2.3350316557629313e-04 -9.2850263487991771e-03 0.0000000000000000e+00  2.2222838769372574e-04 -1.6582484763625668e-03 0.0000000000000000e+00  -4.9477730414201894e-05 -2.8998481870582044e-04 0.0000000000000000e+00  1.9076295155869073e-04 -9.7948976501644677e-03 0.0000000000000000e+00  -1.4283229085114163e-05 -6.4668745047747507e-03 0.0000000000000000e+00  -1.9544681552262216e-05 -6.0872236910834779e-03 0.0000000000000000e+00  2.7724910952922746e-04 -2.5121088045340634e-03 0.0000000000000000e+00  1.6305790986159482e-04 -5.4031496075619516e-04 0.0000000000000000e+00  2.0009768121861677e-04 -8.4870468241717348e-04 0.0000000000000000e+00  2.9477087479415359e-04 -3.9205435439300983e-03 0.0000000000000000e+00  2.9807206758590267e-04 -2.8820897517986459e-03 0.0000000000000000e+00  3.4072413666619386e-04 -4.3602950803034125e-03 0.0000000000000000e+00  -3.4041864477511156e-05 -1.6415365779484721e-04 0.0000000000000000e+00  1.2217412509649820e-04 -9.9332646390381339e-03 0.0000000000000000e+00  2.3374917376504025e-04 -8.8008427000471068e-03 0.0000000000000000e+00  1.7823338035087249e-04 -8.5356964952824910e-03 0.0000000000000000e+00  2.2449647550752452e-04 -1.3484612185279757e-03 0.0000000000000000e+00  1.2792980754278006e-04 -8.2348342596088638e-03 0.0000000000000000e+00  3.0907466125024418e-04 -9.4729015046666476e-03 0.0000000000000000e+00  9.6212967728777829e-05 -7.9029209110302347e-03 0.0000000000000000e+00  7.3835075089199602e-05 -7.5510526129360525e-03 0.0000000000000000e+00  2.7614963488830789e-04 -3.5522958420159787e-03 0.0000000000000000e+00  6.0071339870274205e-05 -7.3602709675827686e-03 0.0000000000000000e+00  3.2480514560219946e-04 -5.1088189383690120e-03 0.0000000000000000e+00  1.1953274226374104e-05 -6.7454047414850409e-03 0.0000000000000000e+00  3.2252571373144482e-04 -5.7659534641507663e-03 0.0000000000000000e+00  3.8667436573490474e-05 -9.7222171407457623e-03 0.0000000000000000e+00  3.9533350424307887e-04 -9.1428756228025560e-03 0.0000000000000000e+00  -5.9092230123821748e-05 -1.9313363917813596e-03 0.0000000000000000e+00  1.2756828402610854e-04 -3.1552592474569662e-04 0.0000000000000000e+00  7.0856798351996098e-05 -1.4079992669315975e-04 0.0000000000000000e+00  3.0541877967841304e-04 -7.1438054884933469e-03 0.0000000000000000e+00  -4.6701602351634207e-05 -5.7779189078949649e-03 0.0000000000000000e+00  3.0477264938700015e-04 -7.5151114781343443e-03 0.0000000000000000e+00  3.4877302104197326e-04 -8.4817976462800496e-03 0.0000000000000000e+00  3.0519108091086580e-04 -7.8649839092170531e-03 0.0000000000000000e+00  3.1816722797501967e-04 -8.1911919602993977e-03 0.0000000000000000e+00  -4.0089288215371472e-05 -5.1465978320044039e-03 0.0000000000000000e+00  3.0485803028929042e-04 -6.7290635489915792e-03 0.0000000000000000e+00  -1.0084329992476385e-04 -3.5700103315556824e-03 0.0000000000000000e+00  -9.2067954257512823e-05 -4.6998206950131663e-03 0.0000000000000000e+00  4.0614240630707838e-04 -8.9060742909710926e-03 0.0000000000000000e+00  -9.8732544351324991e-05 -3.1727602702722392e-03 0.0000000000000000e+00  3.7510280962450122e-04 -8.7416838697834433e-03 0.0000000000000000e+00  -5.7067096374328976e-05 -1.3735008260962469e-03 0.0000000000000000e+00  -6.7414891204949182e-05 -1.0684686288027565e-03 0.0000000000000000e+00  9.9566276521828576e-05 -9.5891561895377307e-03 0.0000000000000000e+00  1.7222192752542508e-04 -9.4222034707322783e-03 0.0000000000000000e+00  3.1629684612201542e-04 -8.3934177251868535e-03 0.0000000000000000e+00  2.8990343089559697e-04 -8.0903187588071881e-03 0.0000000000000000e+00  2.8172560992616082e-04 -7.3934693007671748e-03 0.0000000000000000e+00  3.6097301475868814e-04 -8.6591445219797569e-03 0.0000000000000000e+00  2.7936269537029315e-04 -7.7548792382977697e-03 0.0000000000000000e+00  2.8253508544572319e-04 -7.0088308393935926e-03 0.0000000000000000e+00  -3.0399477800279835e-05 -5.3633483412513262e-03 0.0000000000000000e+00  2.5862913988460674e-04 -1.9097986646478262e-03 0.0000000000000000e+00  2.4854264035519474e-04 -9.1701371364844211e-03 0.0000000000000000e+00  2.5848691041814039e-04 -9.0230750218247089e-03 0.0000000000000000e+00  2.6398894432100745e-04 -2.2440617773593053e-03 0.0000000000000000e+00  4.9676755644019535e-05 -7.0715732804475925e-03 0.0000000000000000e+00  -8.32793387432858