<?xml version="1.0"?>
<VTKFile type="UnstructuredGrid"  version="0.1"  >
<UnstructuredGrid>
<Piece  NumberOfPoints="439" NumberOfCells="725">
<Points>
<DataArray  type="Float64"  NumberOfComponents="3"  format="ascii">0.5808559572843455 0.09072072508774263 0  0.5886630250928888 0.1093072473479774 0  0.2489897949 0.21 0  0.2489897949 0.19 0  0.5847595500517264 0.1000140495353502 0  0.2496355385699469 0.2060260530378829 0  0.249959460510575 0.2020130349814059 0  0.2499594605105767 0.1979869650186357 0  0.24963553856995 0.1939739469621422 0  0.254057641794173 0.2098923903363631 0  0.2591381251835522 0.2097744195404122 0  0.2642171059170912 0.2096237597919945 0  0.2692872462187788 0.2093710617102595 0  0.2743489548009597 0.2090627251288415 0  0.2794128871652164 0.2086757227802776 0  0.2844615049735287 0.2082476055266909 0  0.2894942217263605 0.2077472461522281 0  0.2945241396010135 0.2071895630825928 0  0.2995417169582458 0.2065745794053913 0  0.3045586616871044 0.2058819808331714 0  0.3095735280706856 0.2051766791386101 0  0.3145617985375426 0.2043848441522766 0  0.3195625228887333 0.2035446308470768 0  0.3245333897369471 0.2026623927010728 0  0.3294997382369601 0.2017155775635866 0  0.3344542479821745 0.2007320445452323 0  0.3393941157892193 0.1996857587601916 0  0.3443199832427674 0.1986135157440369 0  0.3492352133019874 0.1974870345491957 0  0.354136993577815 0.1963231291218287 0  0.359024284083965 0.1951219846269333 0  0.3639059710156659 0.1938585277223705 0  0.3687858017759792 0.1925857376318192 0  0.3736440637061402 0.1912579361215598 0  0.3784903734707261 0.1899069923466993 0  0.3833255660107618 0.1885140248130939 0  0.3881488455779174 0.1870908351544924 0  0.392958232177195 0.1856388632951127 0  0.3977602728957266 0.1841383428408754 0  0.402560717031425 0.1826329162864031 0  0.4073373231761148 0.1810863316469128 0  0.4121066570225121 0.1795051625718948 0  0.416873158015899 0.1779159213954143 0  0.4216189295874142 0.1762892625494671 0  0.4263658423301065 0.1746423154697969 0  0.4310948334649622 0.1729732631647525 0  0.4358219957790465 0.1712768952560484 0  0.4405351364457249 0.1695660086025798 0  0.4452387361015586 0.1678316643433072 0  0.4499379440389253 0.1660804080024671 0  0.4546303143768481 0.164309946847508 0  0.4593112960634991 0.1625229669846064 0  0.4639888139634906 0.1607213876726889 0  0.4686598269613284 0.1589032779937395 0  0.4733212401047863 0.1570715199171977 0  0.4779787935832185 0.1552281178033329 0  0.4826307547969412 0.1533714215374921 0  0.4872751402026186 0.151504884510699 0  0.4919160768812205 0.1496295057159746 0  0.4965523152084431 0.1477442203195451 0  0.5011824341832117 0.1458517446377954 0  0.5058095366531579 0.1439530796338301 0  0.5104326251319157 0.1420474532370437 0  0.5150509268239966 0.1401371590968876 0  0.5196668781250586 0.1382226433668174 0  0.5242795212295707 0.1363038377130854 0  0.528888794389366 0.1343821543006375 0  0.5334953484667972 0.1324584544034091 0  0.5380991128187478 0.1305325324399491 0  0.5427008543150674 0.1286047825070345 0  0.5473018824855721 0.126676829097595 0  0.5519004817702375 0.1247474248368207 0  0.5564982557377568 0.1228174497009851 0  0.5610948135275295 0.1208874617092723 0  0.565690285149261 0.1189571838704042 0  0.5702854472583616 0.1170270075224383 0  0.5748800462841956 0.1150969511750623 0  0.579474369305171 0.1131669159313027 0  0.5840687230887845 0.1112370673942901 0  0.5762614987923994 0.0926505906545854 0  0.5716671177951823 0.094580367197021 0  0.5670728944552652 0.09651014245795428 0  0.5624787799211055 0.09843972482923827 0  0.557884661557234 0.1003689881106181 0  0.5532907160706834 0.1022979769080391 0  0.5486966652325521 0.1042261557403318 0  0.5441027881038178 0.1061533556483292 0  0.5395086163044127 0.108079912729334 0  0.5349142494308705 0.1100045470966013 0  0.5303199419317179 0.1119280103575171 0  0.5257247021398234 0.113849087104141 0  0.5211292584852665 0.1157665971364242 0  0.5165344983581395 0.1176829937630096 0  0.5119380499549783 0.1195946989933828 0  0.5073415583545176 0.1215001283178409 0  0.5027458790726506 0.1234037378610093 0  0.4981473289049943 0.1252997531618156 0  0.4935490225123921 0.1271865289172138 0  0.4889517963314215 0.1290706947574554 0  0.484350403055377 0.1309435844354652 0  0.4797493616236785 0.1328035364096826 0  0.4751496196189356 0.1346599436436739 0  0.4705440004985377 0.1365008937555395 0  0.4659386450176094 0.138324477053559 0  0.4613340581581611 0.1401416664168674 0  0.4567242736462224 0.1419415750745659 0  0.452113008400788 0.1437187222467814 0  0.4475016273642558 0.1454914750460361 0  0.4428791417869061 0.1472404178096869 0  0.4382576603260333 0.1489603534759789 0  0.433637146205361 0.1506735080172294 0  0.429006887648919 0.1523571592250479 0  0.4243711517302776 0.1540260918968318 0  0.4197307171261675 0.1556699169433928 0  0.4150810228305086 0.1572836044808754 0  0.4104342207349985 0.1588796682813391 0  0.4057763099467288 0.1604458936981343 0  0.4011172921706339 0.1619860843395494 0  0.3964539302425829 0.1634960755599263 0  0.3917816689174148 0.1649749929431825 0  0.3870977206028065 0.1664313672383915 0  0.382405491301945 0.1678527750289224 0  0.3777230955026079 0.1692463578776122 0  0.3730199250539935 0.1706029158816089 0  0.3683229255929738 0.171918132422677 0  0.3636087899312128 0.1732065103038676 0  0.3588916852919317 0.1744483720299443 0  0.3541625692841872 0.175663105178856 0  0.3494245757347499 0.1768329161546285 0  0.3447002122745445 0.1779690397786133 0  0.3399518089395185 0.1790601778814142 0  0.33521428627891 0.1800991919560809 0  0.330450891549539 0.1811016865368322 0  0.3256858818978365 0.1820385488697341 0  0.3209243891809084 0.1829606031570203 0  0.3161457786935682 0.1838127230408846 0  0.3113855271830965 0.1846174088011122 0  0.3065982906431806 0.1853763683396045 0  0.3018113949022355 0.1860668029997398 0  0.2970153538998032 0.1867195484617339 0  0.2922129576867611 0.1873065199080254 0  0.2874283506571272 0.1878484440410174 0  0.2826167909290083 0.1883300805775067 0  0.2778267503366503 0.188751200459899 0  0.2730163735019841 0.1891007341779883 0  0.2682242526203482 0.1893889578620507 0  0.2634174178658386 0.1896312012371684 0  0.2586082816299118 0.1898001640877413 0  0.2538001599765342 0.1898859467697477 0  0.5828078006726563 0.09536739324006449 0  0.586711264948399 0.1046607011275451 0  0.2589873048597346 0.2004434140613495 0  0.5319109128814082 0.1221950718655997 0  0.5552323444951252 0.112384359205096 0  0.2774761700397982 0.1996935762915041 0  0.5045906592475684 0.1334530016976012 0  0.518410103962927 0.1277237971101923 0  0.2943217137244424 0.1965069906989281 0  0.5685767943518921 0.1063121287958064 0  0.3101695510009096 0.1949973069806226 0  0.3365191487038836 0.1909789085011693 0  0.4907514198363497 0.139129485047073 0  0.354205123323255 0.1860397262859723 0  0.4768871301185141 0.1447291180248287 0  0.3692086129199811 0.1821525835664592 0  0.3876695563341436 0.1767950572612067 0  0.4625134177613509 0.1500218854484228 0  0.4487453113513773 0.155804704082698 0  0.4015606612451225 0.1725493230643487 0  0.4160166374410106 0.1676311117108185 0  0.4341641497106168 0.1612050951383701 0  0.3198878789163126 0.1934095760641339 0  0.5460987414145763 0.1162408356015506 0  0.4240526985275048 0.1646768866038655 0  0.3459337422911797 0.1881840411234158 0  0.3795160845629929 0.179379985477446 0  0.2860036548530657 0.1981556852844587 0  0.5758243902650623 0.1018484518752661 0  0.2680593715918486 0.2011884645828979 0  0.4565292167457908 0.1552605692866107 0  0.4843627915904978 0.1442729574563942 0  0.4982272707663143 0.1386297562745733 0  0.3941105548011754 0.1724425297856756 0  0.4704661944416441 0.1498264616828739 0  0.512065581215983 0.1329225288844574 0  0.4425416784467867 0.1605471119630472 0  0.5258830401747575 0.1271731017797721 0  0.4082448175409914 0.1678657700413336 0  0.3608465674371997 0.1820242316854397 0  0.3028909209157024 0.1938207399721252 0  0.5609097810378728 0.1075719096030829 0  0.5375961976278325 0.1166758564532403 0  0.3282486176132895 0.1947507435964667 0  0.5383087786256616 0.1237137880681483 0  0.3289647220310187 0.1877472154010301 0  0.5255455714507038 0.1206206797658851 0  0.5117456966518042 0.1263683372378454 0  0.4979333031441954 0.1320745772470629 0  0.565335836116384 0.1124097500117485 0  0.3015458016155054 0.2001890681039122 0  0.4702559630848138 0.1432723629014747 0  0.4841050034893263 0.1377179301884348 0  0.393833271481889 0.178967640377957 0  0.3602455457039518 0.1885180621068769 0  0.4522697415534309 0.1502881839152504 0  0.4424677679035206 0.153998291196666 0  0.4080859052929646 0.1743989868321214 0  0.2557274805152588 0.1960395781607319 0  0.2550577135774399 0.2034070826467415 0  0.4317566500388081 0.1661190521277126 0  0.3719549902947136 0.1774383239002728 0  0.33905189439497 0.1855165619807623 0  0.2809161577164342 0.1946245848471584 0  0.2907574934727316 0.1936720687419795 0  0.422177187767357 0.1696950487512951 0  0.3483086781379275 0.1833940357481048 0  0.3816277434548558 0.1744629355539452 0  0.3156807984858728 0.1902167962202134 0  0.5510623930271955 0.1183018129385225 0  0.5483240309760573 0.1110265965698564 0  0.3165649635195387 0.1978945952551125 0  0.2708211182390785 0.1952947554969558 0  0.5748021377832433 0.109360129770153 0  0.4288159683399596 0.1582962437845427 0  0.4191986869540633 0.1621407200488678 0  0.3405583341771727 0.1941522081637203 0  0.2812277761082742 0.2033532195204364 0  0.2918450112692554 0.202299871141314 0  0.3743232754318751 0.1854265402016772 0  0.3501676873660216 0.1923406074679316 0  0.3839732578292441 0.1833109792210714 0  0.2646474238015437 0.1958578965877926 0  0.5810630814564463 0.1059853278015845 0  0.5199410865154666 0.122433548126408 0  0.5061374582935504 0.1281664368246608 0  0.3074149808219864 0.1998280103938146 0  0.4923207613278262 0.1338498595472744 0  0.5601188232443379 0.1151169676062454 0  0.4784871562670842 0.1394604755976977 0  0.4646708276149133 0.1449510994822583 0  0.3660497436424774 0.187510
[...]
<PointData  Vectors="d"> 
<DataArray  type="Float64"  Name="d"  NumberOfComponents="3" format="ascii">-1.9144042715654477e-02 -9.9279274912257409e-02 0.0000000000000000e+00  -1.1336974907111210e-02 -1.0069275265202264e-01 0.0000000000000000e+00  0.0000000000000000e+00 0.0000000000000000e+00 0.0000000000000000e+00  0.0000000000000000e+00 0.0000000000000000e+00 0.0000000000000000e+00  -1.5240449948273621e-02 -9.9985950464649878e-02 0.0000000000000000e+00  0.0000000000000000e+00 0.0000000000000000e+00 0.0000000000000000e+00  0.0000000000000000e+00 0.0000000000000000e+00 0.0000000000000000e+00  0.0000000000000000e+00 0.0000000000000000e+00 0.0000000000000000e+00  0.0000000000000000e+00 0.0000000000000000e+00 0.0000000000000000e+00  1.2404118854365421e-04 -1.0760966363697397e-04 0.0000000000000000e+00  2.6071887229789392e-04 -2.2558045958777815e-04 0.0000000000000000e+00  3.9589390019909731e-04 -3.7624020800553274e-04 0.0000000000000000e+00  5.2222849624880649e-04 -6.2893828974041471e-04 0.0000000000000000e+00  6.4013137280281645e-04 -9.3727487115857603e-04 0.0000000000000000e+00  7.6025803144116704e-04 -1.3242772197224115e-03 0.0000000000000000e+00  8.6507013413501387e-04 -1.7523944733090148e-03 0.0000000000000000e+00  9.5398118134389835e-04 -2.2527538477718299e-03 0.0000000000000000e+00  1.0400933503612899e-03 -2.8104369174072113e-03 0.0000000000000000e+00  1.1138650019750136e-03 -3.4254205946087132e-03 0.0000000000000000e+00  1.1870040252046528e-03 -4.1180191668286400e-03 0.0000000000000000e+00  1.2580647031675066e-03 -4.8233208613898603e-03 0.0000000000000000e+00  1.3025294644060529e-03 -5.6151558477234732e-03 0.0000000000000000e+00  1.3594481099783687e-03 -6.4553691529231714e-03 0.0000000000000000e+00  1.3865092525738919e-03 -7.3376072989271394e-03 0.0000000000000000e+00  1.4090520469684188e-03 -8.2844224364133964e-03 0.0000000000000000e+00  1.4197560865537267e-03 -9.2679554547676745e-03 0.0000000000000000e+00  1.4158181879908452e-03 -1.0314241239808395e-02 0.0000000000000000e+00  1.3978799359098655e-03 -1.1386484255963124e-02 0.0000000000000000e+00  1.3693042895113485e-03 -1.2512965450804259e-02 0.0000000000000000e+00  1.3272788597205769e-03 -1.3676870878171304e-02 0.0000000000000000e+00  1.2707636602522553e-03 -1.4878015373066744e-02 0.0000000000000000e+00  1.2086448863347428e-03 -1.6141472277629427e-02 0.0000000000000000e+00  1.1446699410296865e-03 -1.7414262368180805e-02 0.0000000000000000e+00  1.0591261655614487e-03 -1.8742063878440147e-02 0.0000000000000000e+00  9.6163022453841899e-04 -2.0093007653300642e-02 0.0000000000000000e+00  8.5301705894971650e-04 -2.1485975186906078e-02 0.0000000000000000e+00  7.3249092048362511e-04 -2.2909164845507590e-02 0.0000000000000000e+00  5.9807181413183859e-04 -2.4361136704887331e-02 0.0000000000000000e+00  4.5630682705606346e-04 -2.5861657159124588e-02 0.0000000000000000e+00  3.1294525712646310e-04 -2.7367083713596922e-02 0.0000000000000000e+00  1.4574569620402918e-04 -2.8913668353087226e-02 0.0000000000000000e+00  -2.8726163018925364e-05 -3.0494837428105156e-02 0.0000000000000000e+00  -2.0603087525277938e-04 -3.2084078604585703e-02 0.0000000000000000e+00  -4.0406500934935647e-04 -3.3710737450532893e-02 0.0000000000000000e+00  -6.0095797228542941e-04 -3.5357684530203000e-02 0.0000000000000000e+00  -8.1577254306295862e-04 -3.7026736835247473e-02 0.0000000000000000e+00  -1.0324159346307925e-03 -3.8723104743951554e-02 0.0000000000000000e+00  -1.2630809736080086e-03 -4.0433991397420183e-02 0.0000000000000000e+00  -1.5032870234382421e-03 -4.2168335656692778e-02 0.0000000000000000e+00  -1.7478847917191552e-03 -4.3919591997532946e-02 0.0000000000000000e+00  -1.9993201594383763e-03 -4.5690053152492062e-02 0.0000000000000000e+00  -2.2621441784168848e-03 -4.7477033015393529e-02 0.0000000000000000e+00  -2.5284319840759273e-03 -4.9278612327311171e-02 0.0000000000000000e+00  -2.8012246918714774e-03 -5.1096722006260524e-02 0.0000000000000000e+00  -3.0836172540804310e-03 -5.2928480082802307e-02 0.0000000000000000e+00  -3.3698694812948960e-03 -5.4771882196667065e-02 0.0000000000000000e+00  -3.6617139732348582e-03 -5.6628578462507920e-02 0.0000000000000000e+00  -3.9611342731880354e-03 -5.8495115489301058e-02 0.0000000000000000e+00  -4.2640033002404650e-03 -6.0370494284025362e-02 0.0000000000000000e+00  -4.5715706786464676e-03 -6.2255779680454849e-02 0.0000000000000000e+00  -4.8852574095374036e-03 -6.4148255362204545e-02 0.0000000000000000e+00  -5.2019606452296347e-03 -6.6046920366169923e-02 0.0000000000000000e+00  -5.5226778720880764e-03 -6.7952546762956298e-02 0.0000000000000000e+00  -5.8481818856449116e-03 -6.9862840903112441e-02 0.0000000000000000e+00  -6.1760362902416720e-03 -7.1777356633182507e-02 0.0000000000000000e+00  -6.5071988913683217e-03 -7.3696162286914599e-02 0.0000000000000000e+00  -6.8417314372326175e-03 -7.5617845699362446e-02 0.0000000000000000e+00  -7.1789830654392928e-03 -7.7541545596590891e-02 0.0000000000000000e+00  -7.5190244191052046e-03 -7.9467467560050825e-02 0.0000000000000000e+00  -7.8610886284234405e-03 -8.1395217492965508e-02 0.0000000000000000e+00  -8.2038661635736500e-03 -8.3323170902404917e-02 0.0000000000000000e+00  -8.5490725845509506e-03 -8.5252575163179370e-02 0.0000000000000000e+00  -8.8951043226913641e-03 -8.7182550299014866e-02 0.0000000000000000e+00  -9.2423522385818493e-03 -8.9112538290727669e-02 0.0000000000000000e+00  -9.5906863224850345e-03 -9.1042816129595819e-02 0.0000000000000000e+00  -9.9393299190217478e-03 -9.2972992477561744e-02 0.0000000000000000e+00  -1.0288536598838416e-02 -9.4903048824937677e-02 0.0000000000000000e+00  -1.0638019283509687e-02 -9.6833084068697367e-02 0.0000000000000000e+00  -1.0987471205555960e-02 -9.8762932605709883e-02 0.0000000000000000e+00  -1.8794695501983680e-02 -9.7349409345414556e-02 0.0000000000000000e+00  -1.8445270793575792e-02 -9.5419632802979007e-02 0.0000000000000000e+00  -1.8095688427854046e-02 -9.3489857542045710e-02 0.0000000000000000e+00  -1.7745997256367229e-02 -9.1560275170761721e-02 0.0000000000000000e+00  -1.7396309914617367e-02 -8.9631011889381898e-02 0.0000000000000000e+00  -1.7046449695547763e-02 -8.7702023091960901e-02 0.0000000000000000e+00  -1.6696694828065965e-02 -8.5773844259668219e-02 0.0000000000000000e+00  -1.6346766251170892e-02 -8.3846644351670802e-02 0.0000000000000000e+00  -1.5997132344945219e-02 -8.1920087270665992e-02 0.0000000000000000e+00  -1.5647693512833002e-02 -7.9995452903398670e-02 0.0000000000000000e+00  -1.5298195306386325e-02 -7.8071989642482811e-02 0.0000000000000000e+00  -1.4949629392681789e-02 -7.6150912895859013e-02 0.0000000000000000e+00  -1.4601267341629587e-02 -7.4233402863575867e-02 0.0000000000000000e+00  -1.4252221763123520e-02 -7.2317006236990417e-02 0.0000000000000000e+00  -1.3904864460684500e-02 -7.0405301006617169e-02 0.0000000000000000e+00  -1.3557550355507045e-02 -6.8499871682159041e-02 0.0000000000000000e+00  -1.3209423931771297e-02 -6.6596262138990683e-02 0.0000000000000000e+00  -1.2864168393828321e-02 -6.4700246838184344e-02 0.0000000000000000e+00  -1.2518669080825566e-02 -6.2813471082786204e-02 0.0000000000000000e+00  -1.2172089556158967e-02 -6.0929305242544654e-02 0.0000000000000000e+00  -1.1829677126595045e-02 -5.9056415564534760e-02 0.0000000000000000e+00  -1.1486912852674603e-02 -5.7196463590317388e-02 0.0000000000000000e+00  -1.1142849151798652e-02 -5.5340056356326078e-02 0.0000000000000000e+00  -1.0804662566566774e-02 -5.3499106244460554e-02 0.0000000000000000e+00  -1.0466212341887224e-02 -5.1675522946440941e-02 0.0000000000000000e+00  -1.0126993495707086e-02 -4.9858333583132596e-02 0.0000000000000000e+00  -9.7929723020330622e-03 -4.8058424925434093e-02 0.0000000000000000e+00  -9.4604318418469759e-03 -4.6281277753218518e-02 0.0000000000000000e+00  -9.1280071727545299e-03 -4.4508524953963909e-02 0.0000000000000000e+00  -8.8066870444747578e-03 -4.2759582190313006e-02 0.0000000000000000e+00  -8.4843627997383333e-03 -4.1039646524021034e-02 0.0000000000000000e+00  -8.1610712147855060e-03 -3.9326491982770599e-02 0.0000000000000000e+00  -7.8475240656106331e-03 -3.7642840774952113e-02 0.0000000000000000e+00  -7.5394542786355262e-03 -3.5973908103168188e-02 0.0000000000000000e+00  -7.2360831771191526e-03 -3.4330083056607147e-02 0.0000000000000000e+00  -6.9419717671395861e-03 -3.2716395519124586e-02 0.0000000000000000e+00  -6.6449681570071592e-03 -3.1120331718660837e-02 0.0000000000000000e+00  -6.3590732396306927e-03 -2.9554106301865727e-02 0.0000000000000000e+00  -6.0742853100656186e-03 -2.8013915660450577e-02 0.0000000000000000e+00  -5.7938415324649125e-03 -2.6503924440073736e-02 0.0000000000000000e+00  -5.5222971519754060e-03 -2.5025007056817469e-02 0.0000000000000000e+00  -5.2624397609482764e-03 -2.3568632761608484e-02 0.0000000000000000e+00  -5.0108633561633002e-03 -2.2147224971077593e-02 0.0000000000000000e+00  -4.7494534498744136e-03 -2.0753642122387818e-02 0.0000000000000000e+00  -4.5088181928324266e-03 -1.9397084118391153e-02 0.0000000000000000e+00  -4.2620119482034528e-03 -1.8081867577323080e-02 0.0000000000000000e+00  -4.0323419042956393e-03 -1.6793489696132417e-02 0.0000000000000000e+00  -3.8056408379297147e-03 -1.5551627970055786e-02 0.0000000000000000e+00  -3.5909511400236648e-03 -1.4336894821143959e-02 0.0000000000000000e+00  -3.3851389838390998e-03 -1.3167083845371507e-02 0.0000000000000000e+00  -3.1656967383864223e-03 -1.2030960221386713e-02 0.0000000000000000e+00  -2.9702943677734996e-03 -1.0939822118585785e-02 0.0000000000000000e+00  -2.7640113227435227e-03 -9.9008080439190963e-03 0.0000000000000000e+00  -2.5836003464761114e-03 -8.8983134631677712e-03 0.0000000000000000e+00  -2.4048042925384669e-03 -7.9614511302658880e-03 0.0000000000000000e+00  -2.2224913038087408e-03 -7.0393968429797458e-03 0.0000000000000000e+00  -2.0572960854908671e-03 -6.1872769591152970e-03 0.0000000000000000e+00  -1.8737418903047355e-03 -5.3825911988878749e-03 0.0000000000000000e+00  -1.7171727245775079e-03 -4.6236316603954636e-03 0.0000000000000000e+00  -1.5602627598841317e-03 -3.9331970002601810e-03 0.0000000000000000e+00  -1.4124980566781696e-03 -3.2804515382660860e-03 0.0000000000000000e+00  -1.2710885640819019e-03 -2.6934800919746231e-03 0.0000000000000000e+00  -1.1118898880600916e-03 -2.1515559589826080e-03 0.0000000000000000e+00  -9.7964391052123966e-04 -1.6699194224932949e-03 0.0000000000000000e+00  -8.2587879722132199e-04 -1.2487995401010089e-03 0.0000000000000000e+00  -6.9244992624026139e-04 -8.9926582201173277e-04 0.0000000000000000e+00  -5.4076510223780635e-04 -6.1104213794935019e-04 0.0000000000000000e+00  -4.0379415110908604e-04 -3.6879876283160766e-04 0.0000000000000000e+00  -2.6912468139738766e-04 -1.9983591225869080e-04 0.0000000000000000e+00  -1.3344062912371051e-04 -1.1405323025222972e-04 0.0000000000000000e+00  -1.7192199327343748e-02 -9.9632606759913811e-02 0.0000000000000000e+00  -1.3288735051601100e-02 -1.0033929887242779e-01 0.0000000000000000e+00  1.3878328085311190e-05 -1.0897528149083689e-04 0.0000000000000000e+00  -1.1235321503899283e-02 -7.7804928134369289e-02 0.0000000000000000e+00  -1.3007444981690807e-02 -8.7586099375802695e-02 0.0000000000000000e+00  2.4777327995822475e-05 -1.1006156506885624e-03 0.0000000000000000e+00  -9.2589241293285704e-03 -6.6449340951490729e-02 0.0000000000000000e+00  -1.0270896530811091e-02 -7.2178545538904515e-02 0.0000000000000000e+00  -1.8918148132222130e-04 -2.7842001416104609e-03 0.0000000000000000e+00  -1.4201288786600369e-02 -9.3230851304528545e-02 0.0000000000000000e+00  -2.4328865601592835e-04 -4.9731516002751702e-03 0.0000000000000000e+00  -4.8102683797143840e-04 -9.8505527422274256e-03 0.0000000000000000e+00  -8.2667464236961651e-03 -6.0772857602017206e-02 0.0000000000000000e+00  -1.0764942476494022e-03 -1.3960273714088561e-02 0.0000000000000000e+00  -7.2996190246784600e-03 -5.5173224624256174e-02 0.0000000000000000e+00  -1.5287584705739792e-03 -1.7861654128909700e-02 0.0000000000000000e+00  -2.2187011761058669e-03 -2.3204942738876098e-02 0.0000000000000000e+00  -6.4723372879225746e-03 -4.9519786977246669e-02 0.0000000000000000e+00  -5.4124203328192776e-03 -4.4195295917211726e-02 0.0000000000000000e+00  -2.7928301567105955e-03 -2.7548334286575708e-02 0.0000000000000000e+00  -3.5344543029463007e-03 -3.2368888289287280e-02 0.0000000000000000e+00  -4.5378281538344042e-03 -3.8780667166307098e-02 0.0000000000000000e+00  -3.5939610935778227e-04 -6.5993081505059401e-03 0.0000000000000000e+00  -1.2306612693508790e-02 -8.3750280183807077e-02 0.0000000000000000e+00  -4.0140161612086511e-03 -3.5172018216958645e-02 0.0000000000000000e+00  -8.3225233536767169e-04 -1.1967054056021659e-02 0.0000000000000000e+00  -1.8565500028979048e-03 -2.0771109702005994e-02 0.0000000000000000e+00  -6.4682839144154894e-05 -1.8858592861595049e-03 0.0000000000000000e+00  -1.5297990913057162e-02 -9.6396464059608236e-02 0.0000000000000000e+00  7.0055445985877914e-05 -4.8666106383112837e-04 0.0000000000000000e+00  -5.0442234968370477e-03 -4.6989794042189635e-02 0.0000000000000000e+00  -6.8734828858474884e-03 -5.7977405872414858e-02 0.0000000000000000e+00  -7.8404208268841175e-03 -6.3620607054238484e-02 0.0000000000000000e+00  -3.1934112675020493e-03 -2.5307106885520927e-02 0.0000000000000000e+00  -5.9386629178455295e-03 -5.2423901645931241e-02 0.0000000000000000e+00  -8.8335274940625728e-03 -6.9327834444361108e-02 0.0000000000000000e+00  -4.2003446789788219e-03 -4.1703251365752703e-02 0.0000000000000000e+00  -9.8474856521272251e-03 -7.5077261549047647e-02 0.0000000000000000e+00  -3.8905656445402401e-03 -2.9883866629864041e-02 0.0000000000000000e+00  -1.8507586921355497e-03 -1.5725404985752190e-02 0.0000000000000000e+00  -4.8073674619377468e-04 -3.9288966990616691e-03 0.0000000000000000e+00  -1.4371190433950102e-02 -9.0177727068067426e-02 0.0000000000000000e+00  -1.2863658291223462e-02 -8.0452622020526388e-02 0.0000000000000000e+00  5.5844398605338430e-05 -8.1207779297739133e-03 0.0000000000000000e+00  -1.0109123424084536e-02 -8.0126533501327979e-02 0.0000000000000000e+00  -1.2700050529801600e-03 -8.4124630295189570e-03 0.0000000000000000e+00  -1.2375513773107631e-02 -7.5504501898525936e-02 0.0000000000000000e+00  -1.1343971455160931e-02 -6.9756844426560424e-02 0.0000000000000000e+00  -1.0324947845926793e-02 -6.4050604417346890e-02 0.0000000000000000e+00  -1.2135694752325217e-02 -9.1465068323840160e-02 0.0000000000000000e+00  3.6470335055053524e-04 -3.6857502316815362e-03 0.0000000000000000e+00  -8.3394536715973265e-03 -5.2852818762929341e-02 0.0000000000000000e+00  -9.3218303839407313e-03 -5.8407251475971429e-02 0.0000000000000000e+00  -1.2801351898739754e-03 -2.4907177957639567e-02 0.0000000000000000e+00  -2.6122102845991076e-04 -1.5356756228718117e-02 0.0000000000000000e+00  -7.1131392922836965e-03 -4.5836997749148831e-02 0.0000000000000000e+00  -6.4648146191599353e-03 -4.2126890467734733e-02 0.0000000000000000e+00  -1.8589184956573606e-03 -2.9475831503477667e-02 0.0000000000000000e+00  -5.8819464938322272e-05 -4.6258864997555534e-05 0.0000000000000000e+00  4.2977546500117863e-05 -3.5560352369942759e-05 0.0000000000000000e+00  -3.0464976076607264e-03 -3.7654705636442812e-02 0.0000000000000000e+00  -2.6812113136963234e-03 -1.8787918335582462e-02 0.0000000000000000e+00  -1.5739421914605194e-03 -1.0530230213226697e-02 0.0000000000000000e+00  -3.8401040254911281e-04 -1.4222073468916935e-03 0.0000000000000000e+00  -5.1114527125770419e-04 -2.4095641229487483e-03 0.0000000000000000e+00  -2.4933458146322927e-03 -3.4258159054659308e-02 0.0000000000000000e+00  -1.8534975949855311e-03 -1.2652756446082979e-02 0.0000000000000000e+00  -3.1410722174136370e-03 -2.1583856640290666e-02 0.0000000000000000e+00  -9.5157005248305295e-04 -5.9426623431566286e-03 0.0000000000000000e+00  -1.1092608078145485e-02 -8.5479836321376582e-02 0.0000000000000000e+00  -1.4117356725919659e-02 -8.5049595791281338e-02 0.0000000000000000e+00  3.2545993622581216e-04 -5.9733604873566191e-03 0.0000000000000000e+00  -2.6759518168377510e-04 -6.7488883562804366e-04 0.0000000000000000e+00  -1.2499299857117079e-02 -9.5362658332929270e-02 0.0000000000000000e+00  -5.8519883043113598e-03 -3.7168902170708590e-02 0.0000000000000000e+00  -5.1309634537352149e-03 -3.3734978045038388e-02 0.0000000000000000e+00  3.0238309382042233e-04 -1.0641841865371950e-02 0.0000000000000000e+00  3.5928343218080629e-04 -1.4210222608291589e-03 0.0000000000000000e+00  4.3730795538311534e-04 -2.4810805657815007e-03 0.0000000000000000e+00  -4.4811717861807903e-04 -1.9108313843178161e-02 0.0000000000000000e+00  2.4603847613490778e-04 -1.2834733850698880e-02 0.0000000000000000e+00  -5.5503099998558693e-04 -2.1864362097564611e-02 0.0000000000000000e+00  -1.6706274396157417e-04 -3.5107771084486744e-04 0.0000000000000000e+00  -1.3261682909843094e-02 -9.8056214557333696e-02 0.0000000000000000e+00  -1.2156174530147995e-02 -7.3210961778679168e-02 0.0000000000000000e+00  -1.1128385635222371e-02 -6.7478073080424611e-02 0.0000000000000000e+00  4.2265526172069251e-04 -4.5187929934405518e-03 0.0000000000000000e+00  -1.0113665484100257e-02 -6.1794650357811974e-02 0.0000000000000000e+00  -1.1541480329097312e-02 -8.9229835781030761e-02 0.0000000000000000e+00  -9.1158534279898746e-03 -5.6184034307385430e-02 0.0000000000000000e+00  -8.1443699147130798e-03 -5.0689147408731067e-02 0.0000000000000000e+00  -2.8043401027634892e-04 -1.6857023296847545e-02 0.0000000000000000e+00  -7.6500064044314814e-03 -4.7894917601602215e-02 0.0000000000000000e+00  -1.3580413226132512e-03 -2.6690819271068391e-02 0.0000000000000000e+00  -6.2920197388312976e-03 -4.0069655524589333e-02 0.0000000000000000e+00  -1.9584012138779646e-03 -3.1359990009383047e-02 0.0000000000000000e+00  -1.5968160637219852e-02 -9.4413951094129117e-02 0.0000000000000000e+00  -1.0278566906431278e-02 -8.2406470666871096e-02 0.0000000000000000e+00  -1.2401349806895386e-03 -7.3159108451756162e-03 0.0000000000000000e+00  2.8436916010226107e-04 -7.4094623631551504e-04 0.0000000000000000e+00  1.5152938307673723e-04 -2.8107741949007491e-04 0.0000000000000000e+00  -3.9116525001433745e-03 -4.5413820059151934e-02 0.0000000000000000e+00  -4.8438727053614714e-03 -3.1261678234570808e-02 0.0000000000000000e+00  -4.7666665761337971e-03 -5.0809874575697384e-02 0.0000000000000000e+00  -7.6242082465929895e-03 -6.7634957191149744e-02 0.0000000000000000e+00  -5.7056817664344027e-03 -5.6321715785014694e-02 0.0000000000000000e+00  -6.6490207206802701e-03 -6.1942780008142261e-02 0.0000000000000000e+00  -3.9116576763762196e-03 -2.6745854421281964e-02 0.0000000000000000e+00  -3.1753814600447862e-03 -4.0201695301955741e-02 0.0000000000000000e+00  -2.5738720907847717e-03 -1.6859488364710046e-02 0.0000000000000000e+00  -3.6879825558660895e-03 -2.3800773153887147e-02 0.0000000000000000e+00  -9.2447423142558560e-03 -7.7102879721171080e-02 0.0000000000000000e+00  -2.2799937330248497e-03 -1.4484771428273206e-02 0.0000000000000000e+00  -8.8830409520652496e-03 -7.3255334830788818e-02 0.0000000000000000e+00  -8.7478806550867578e-04 -4.5777973719847327e-03 0.0000000000000000e+00  -7.2690912047092596e-04 -3.2816273847920828e-03 0.0000000000000000e+00  -1.5542521222845445e-02 -9.1735879572777013e-02 0.0000000000000000e+00  -1.4971295805359466e-02 -8.8143367120466498e-02 0.0000000000000000e+00  -7.6808148626547508e-03 -6.5695582053224455e-02 0.0000000000000000e+00  -6.7103048390758846e-03 -6.0025181941350779e-02 0.0000000000000000e+00  -4.7684809130205622e-03 -4.8903712837466806e-02 0.0000000000000000e+00  -8.5760604918509679e-03 -7.1379888287211285e-02 0.0000000000000000e+00  -5.7720485399996874e-03 -5.4434707254316844e-02 0.0000000000000000e+00  -3.8934495269145621e-03 -4.3568852641140896e-02 0.0000000000000000e+00  -4.1281513004412570e-03 -2.8234094527360518e-02 0.0000000000000000e+00  4.3492000200614567e-04 -7.2699303685999552e-03 0.0000000000000000e+00  -1.3907063176689180e-02 -8.2159355297234629e-02 0.0000000000000000e+00  -1.3190248809704277e-02 -7.8511411924350780e-02 0.0000000000000000e+00  3.40485905039