<?xml version="1.0"?>
<VTKFile type="UnstructuredGrid"  version="0.1"  >
<UnstructuredGrid>
<Piece  NumberOfPoints="439" NumberOfCells="725">
<Points>
<DataArray  type="Float64"  NumberOfComponents="3"  format="ascii">0.5934826309082185 0.1369002542449087 0  0.5982614566648277 0.1564051447791912 0  0.2489897949 0.21 0  0.2489897949 0.19 0  0.5958717755139858 0.1466531940299395 0  0.2496355385699469 0.2060260530378829 0  0.249959460510575 0.2020130349814059 0  0.2499594605105767 0.1979869650186357 0  0.24963553856995 0.1939739469621422 0  0.2539766077791768 0.2099653947373211 0  0.2589715793344596 0.2099244048958109 0  0.2639668533577259 0.2098688515542761 0  0.2689594449299592 0.2097705467069032 0  0.273950341095749 0.2096482506695429 0  0.2789451133072907 0.2094914960794406 0  0.2839354011985866 0.2093165415382792 0  0.288922578766013 0.2091073233779945 0  0.2939135021409895 0.2088705400352255 0  0.2989040041698615 0.2086044731126473 0  0.3039040381256725 0.2082980213106727 0  0.3089051351703576 0.2079864163417712 0  0.313903722855348 0.2076240578335702 0  0.3189160450942395 0.2072366753418648 0  0.3239181283319206 0.2068208004269155 0  0.3289257215535378 0.2063650457048444 0  0.3339312483696641 0.2058851283502441 0  0.3389352329806805 0.2053641494395133 0  0.343931905216551 0.2048241569630306 0  0.3489259041478202 0.2042481085309328 0  0.3539130239692623 0.2036455314331323 0  0.3588908955472037 0.2030164359437559 0  0.3638618452440056 0.2023439173731678 0  0.3688304518948826 0.2016623871777463 0  0.3737809548328673 0.2009427900746236 0  0.3787195210776225 0.2002090644391077 0  0.3836447307862974 0.1994494284272435 0  0.3885565316904019 0.1986746887134545 0  0.3934549680817427 0.1978891707423527 0  0.3983415272191592 0.1970871507132306 0  0.4032249901184492 0.1962854273370852 0  0.4080955795708207 0.1954746065347507 0  0.4129654837884763 0.1946564547483829 0  0.4178358894086511 0.1938378617193104 0  0.4227067940245546 0.1930095307007334 0  0.4275855062260688 0.1921778284627338 0  0.4324675026546532 0.1913379818930809 0  0.4373609480831626 0.1904921733520645 0  0.4422565842061514 0.1896397142066651 0  0.4471605558561057 0.1887797007627838 0  0.4520703298290534 0.1879148449307722 0  0.4569875513036982 0.187042131207917 0  0.4619051214952261 0.1861614302350939 0  0.4668268495137799 0.185272866651538 0  0.4717528104029697 0.1843741390790726 0  0.4766750266681611 0.1834633737063176 0  0.4815991392780788 0.1825415874508401 0  0.486524372801261 0.1816064750929645 0  0.4914444163479844 0.180655084010175 0  0.4963634861948571 0.1796891733319916 0  0.5012803749348711 0.1787066755101262 0  0.5061902224342327 0.177707219195183 0  0.5110958382762302 0.1766910333726598 0  0.515995369330325 0.1756570139417649 0  0.5208841737808786 0.1746102788229905 0  0.5257663132595416 0.1735472085152847 0  0.5306401585258057 0.1724696191224172 0  0.5355048541742513 0.1713796112517977 0  0.5403617845867119 0.1702849494788187 0  0.5452045070721637 0.1691776357070527 0  0.5500390365821015 0.1680515816318764 0  0.5548782288878432 0.1669250260448888 0  0.5597034532664996 0.1657881794802639 0  0.5645339298371793 0.1646382714216439 0  0.5693576266445668 0.1634830830499285 0  0.5741765193578304 0.1623133456729007 0  0.5789978565434646 0.1611417225460008 0  0.5838127951224653 0.1599620590398049 0  0.5886293619216292 0.1587764775164849 0  0.5934448213253947 0.1575914339002449 0  0.5886613049937208 0.1380770589786373 0  0.5838416808039164 0.1392511011697433 0  0.579024619329329 0.1404246921803842 0  0.5742062014376453 0.1415999642666819 0  0.5693878558375748 0.1427703618574372 0  0.5645746689929706 0.1439437108963604 0  0.559762706990438 0.145109447379167 0  0.5549561026305198 0.1462655342339733 0  0.5501558223480975 0.1474173484614058 0  0.5453566680406252 0.1485504813978562 0  0.5405666308514943 0.1496748132050964 0  0.535768590420543 0.1507807203534589 0  0.5309698064537233 0.151859296838702 0  0.5261828699081517 0.1529330804039736 0  0.5213773341056746 0.1539858904823349 0  0.5165665302666429 0.1550122865226901 0  0.5117616157549338 0.1560330709950637 0  0.5069328357968179 0.1570337349089234 0  0.5020986925788192 0.1580137572630005 0  0.4972641916234936 0.1589893996077331 0  0.4924087665372738 0.1599457138577678 0  0.4875510337701491 0.1608869594234298 0  0.4826884717245309 0.1618262394816439 0  0.4778128254856079 0.1627474146244756 0  0.4729391690170541 0.163658593406667 0  0.4680603763064496 0.1645696747483853 0  0.4631774421842957 0.1654666017193201 0  0.4582991843954275 0.1663586410497856 0  0.4534168387960634 0.167250686435748 0  0.4485368372371535 0.168132380743116 0  0.4436675989641844 0.1690083015226331 0  0.4387990713033149 0.1698863880575249 0  0.4339388733858729 0.1707538791801524 0  0.4290826645657344 0.1716183978701821 0  0.4242335162586804 0.1724732652727347 0  0.4193891200159772 0.1733183020571609 0  0.4145502583627099 0.1741560858936972 0  0.4097138901355351 0.1749836478667547 0  0.4048786232116992 0.1758008034415502 0  0.4000435287002941 0.1766038435101248 0  0.3952053837739117 0.1773923833104584 0  0.390363848544738 0.1781709315104889 0  0.3855177434901105 0.1789325988679709 0  0.3806750872058543 0.1796781135907698 0  0.3758212403540758 0.1804024989983552 0  0.3709683428728586 0.1811017424692982 0  0.3661036910733654 0.1817839533909412 0  0.3612334448790043 0.1824358584305273 0  0.3563543806446527 0.183071797393687 0  0.3514679333963637 0.1836803620572643 0  0.3465889029230508 0.1842693858624728 0  0.3416969522258705 0.1848316693796441 0  0.3368138926627051 0.1853647084565921 0  0.3319196700555878 0.1858742366331833 0  0.3270305921503528 0.1863451258724531 0  0.3221452411188384 0.1868075900750897 0  0.3172571891954324 0.1872276578316856 0  0.3123842337641931 0.1876226980390782 0  0.3075016978459696 0.1879882618052671 0  0.3026268497444803 0.1883157002044453 0  0.2977504705208374 0.1886204032401976 0  0.2928757812196181 0.1888875246394509 0  0.2880120063160361 0.1891299870962591 0  0.2831361474294273 0.1893393029176414 0  0.2782709601153129 0.1895172601211871 0  0.2733952828583782 0.1896604496700163 0  0.2685258406140504 0.1897739438159146 0  0.2636476410418144 0.1898664511263943 0  0.2587645276426956 0.1899275047042491 0  0.2538783987442184 0.1899566554830411 0  0.5946770151191361 0.1417772898127684 0  0.5970650195022285 0.1515292836005356 0  0.2589746310400015 0.2005210708755438 0  0.5405313814134395 0.1600038470374626 0  0.564957444968555 0.1541945630996314 0  0.2774310227648553 0.2003809414238764 0  0.5118151026453335 0.1662085780528772 0  0.5263776428016044 0.1630854390295801 0  0.2943840105984583 0.198163197152685 0  0.5789958027621172 0.1503231554223641 0  0.3102963608038025 0.1978487770765462 0  0.3369779458500252 0.1963393207274241 0  0.4971808110014678 0.169191470785979 0  0.3551672894708873 0.1933878326743439 0  0.4824948014205554 0.1720398286713927 0  0.3705536743171501 0.1913367293671285 0  0.3894838222265711 0.188434248757883 0  0.467350582050286 0.1744874580834303 0  0.4527357840443836 0.1775974230428205 0  0.4037173275184349 0.1862096726430025 0  0.4186103374997192 0.1835923284770909 0  0.4374491935101164 0.1802999690492653 0  0.3201323863708617 0.19711648859631 0  0.5553975514887308 0.1565172827523958 0  0.426951667651202 0.1819986093594753 0  0.3466764418154991 0.1945747662782477 0  0.3811046219224813 0.1899039285732601 0  0.2859999641805085 0.199300359162337 0  0.5868049209692722 0.1470634466979621 0  0.2680022375773848 0.2015044950141955 0  0.4604938895914329 0.1785035448679026 0  0.4899380865690582 0.1730190109874846 0  0.5046228401946693 0.1700993819742961 0  0.3964261636526856 0.1850369518151131 0  0.475219692376366 0.1758100121812761 0  0.5192485233197944 0.1670385668998064 0  0.4457899779270949 0.1811299222298373 0  0.5337989853686859 0.1638426114620563 0  0.4109686802457481 0.1826141337647325 0  0.362262762627818 0.1901851480875947 0  0.3031215474002456 0.196101449047166 0  0.5712750016698902 0.1503557776986893 0  0.546984954559421 0.1555502138225208 0  0.3283501313275921 0.1992605113590324 0  0.5465558094780886 0.1625541216308103 0  0.3297510150242558 0.1923448840145012 0  0.5345463511353474 0.1573825190193038 0  0.5200733927943063 0.1605775966519791 0  0.5055258425850011 0.1636295694524495 0  0.5748638765901786 0.1558202080864659 0  0.3013196097648539 0.2023567829742982 0  0.4762400340412693 0.1693397081494276 0  0.4909073761596112 0.1665447133284492 0  0.3952295766651883 0.1914230591773174 0  0.3608778537104538 0.1965705562765026 0  0.4572152177802912 0.1728302850631339 0  0.446883490148815 0.1746890278563475 0  0.4098149582675421 0.1890071063315674 0  0.2557609397505065 0.1960739370473235 0  0.2550295968351396 0.2034348917180633 0  0.4342528519073637 0.1847116902221198 0  0.3738787642497318 0.1870145868232249 0  0.3400879633235858 0.1911617436645345 0  0.281099047475762 0.1954977033078881 0  0.2909992751924965 0.1951110750955936 0  0.4242999654457892 0.1866190644679234 0  0.3495861527223071 0.1900704345191253 0  0.3838450250524053 0.1853264090581002 0  0.3162084044116221 0.1935553839754554 0  0.5599351194425357 0.1593396599537075 0  0.5583838502259901 0.1517520090838331 0  0.3164299562589929 0.2012971590639213 0  0.2709562108670838 0.195723548081093 0  0.5846328740190887 0.1543004940019267 0  0.4327055026311163 0.1765358608153799 0  0.4226170742223031 0.1787193134896415 0  0.3406703307116969 0.1999432113036697 0  0.2809881478626393 0.2042301230380299 0  0.2915622405646954 0.2037915034139461 0  0.3751930374244141 0.1952278708159537 0  0.3504269377022754 0.1992053163293027 0  0.3849695211217947 0.1943772038625602 0  0.2647344576976628 0.1960868372701152 0  0.5913076279379776 0.1519543470533015 0  0.5287565947814249 0.1581841411435928 0  0.514261561185153 0.161321352051242 0  0.3071779324980534 0.2024523165538491 0  0.499691967382193 0.1643157584230751 0  0.5693206013227051 0.1576580886375805 0  0.4850569490302489 0.1671787405166508 0  0.4704256458710259 0.169921538365395 0  0.3667559765920359 0.1962
[...]
<PointData  Vectors="d"> 
<DataArray  type="Float64"  Name="d"  NumberOfComponents="3" format="ascii">-6.5173690917812426e-03 -5.3099745755091257e-02 0.0000000000000000e+00  -1.7385433351723750e-03 -5.3594855220808750e-02 0.0000000000000000e+00  0.0000000000000000e+00 0.0000000000000000e+00 0.0000000000000000e+00  0.0000000000000000e+00 0.0000000000000000e+00 0.0000000000000000e+00  -4.1282244860142946e-03 -5.3346805970060612e-02 0.0000000000000000e+00  0.0000000000000000e+00 0.0000000000000000e+00 0.0000000000000000e+00  0.0000000000000000e+00 0.0000000000000000e+00 0.0000000000000000e+00  0.0000000000000000e+00 0.0000000000000000e+00 0.0000000000000000e+00  0.0000000000000000e+00 0.0000000000000000e+00 0.0000000000000000e+00  4.3007173547726168e-05 -3.4605262678835367e-05 0.0000000000000000e+00  9.4173023205385118e-05 -7.5595104189068719e-05 0.0000000000000000e+00  1.4564134083381881e-04 -1.3114844572376742e-04 0.0000000000000000e+00  1.9442720742925625e-04 -2.2945329309677999e-04 0.0000000000000000e+00  2.4151766759186071e-04 -3.5174933045715605e-04 0.0000000000000000e+00  2.9248417351526853e-04 -5.0850392055934890e-04 0.0000000000000000e+00  3.3896635919291289e-04 -6.8345846172072823e-04 0.0000000000000000e+00  3.8233822099642209e-04 -8.9267662200552208e-04 0.0000000000000000e+00  4.2945589033722802e-04 -1.1294599647744871e-03 0.0000000000000000e+00  4.7615221359065978e-04 -1.3955268873527514e-03 0.0000000000000000e+00  5.3238046377280970e-04 -1.7019786893273396e-03 0.0000000000000000e+00  5.8967180283960767e-04 -2.0135836582286949e-03 0.0000000000000000e+00  6.4445378221138000e-04 -2.3759421664298857e-03 0.0000000000000000e+00  7.1297031548453525e-04 -2.7633246581351225e-03 0.0000000000000000e+00  7.7124784754738478e-04 -3.1791995730843458e-03 0.0000000000000000e+00  8.3503536354625086e-04 -3.6349542951555516e-03 0.0000000000000000e+00  8.9675647404330642e-04 -4.1148716497558229e-03 0.0000000000000000e+00  9.5693537945196454e-04 -4.6358505604867234e-03 0.0000000000000000e+00  1.0098019096934105e-03 -5.1758430369692587e-03 0.0000000000000000e+00  1.0599951353442232e-03 -5.7518914690671795e-03 0.0000000000000000e+00  1.1033092511678153e-03 -6.3544685668677665e-03 0.0000000000000000e+00  1.1373751234911723e-03 -6.9835640562441355e-03 0.0000000000000000e+00  1.1645191146746675e-03 -7.6560826268321077e-03 0.0000000000000000e+00  1.1893200599330139e-03 -8.3376128222536709e-03 0.0000000000000000e+00  1.1960172922885505e-03 -9.0572099253762740e-03 0.0000000000000000e+00  1.1907778314347954e-03 -9.7909355608923471e-03 0.0000000000000000e+00  1.1721818344852734e-03 -1.0550571572756583e-02 0.0000000000000000e+00  1.1401770329680727e-03 -1.1325311286545422e-02 0.0000000000000000e+00  1.0948077186795316e-03 -1.2110829257647391e-02 0.0000000000000000e+00  1.0375611504887380e-03 -1.2912849286769376e-02 0.0000000000000000e+00  9.7721834415075972e-04 -1.3714572662914953e-02 0.0000000000000000e+00  9.0400209090977916e-04 -1.4525393465249191e-02 0.0000000000000000e+00  8.3010060294537479e-04 -1.5343545251617102e-02 0.0000000000000000e+00  7.5670051749938180e-04 -1.6162138280689638e-02 0.0000000000000000e+00  6.8379942779112763e-04 -1.6990469299266574e-02 0.0000000000000000e+00  6.1870592367686784e-04 -1.7822171537266143e-02 0.0000000000000000e+00  5.5689664662824723e-04 -1.8662018106919125e-02 0.0000000000000000e+00  5.0653636948530133e-04 -1.9507826647935531e-02 0.0000000000000000e+00  4.5836678681858249e-04 -2.0360285793334789e-02 0.0000000000000000e+00  4.1853273110895170e-04 -2.1220299237216012e-02 0.0000000000000000e+00  3.8450099840876888e-04 -2.2085155069227803e-02 0.0000000000000000e+00  3.5791676741178040e-04 -2.2957868792083107e-02 0.0000000000000000e+00  3.3168125331004277e-04 -2.3838569764906122e-02 0.0000000000000000e+00  3.0960356621329379e-04 -2.4727133348461990e-02 0.0000000000000000e+00  2.9175874976981197e-04 -2.5625860920927338e-02 0.0000000000000000e+00  2.7016930929435869e-04 -2.6536626293682360e-02 0.0000000000000000e+00  2.5047621356549652e-04 -2.7458412549159910e-02 0.0000000000000000e+00  2.3190403108476736e-04 -2.8393524907035464e-02 0.0000000000000000e+00  2.0814187217785594e-04 -2.9344915989825048e-02 0.0000000000000000e+00  1.8340601339596920e-04 -3.0310826668008394e-02 0.0000000000000000e+00  1.5648904778169231e-04 -3.1293324489873785e-02 0.0000000000000000e+00  1.2253084148367585e-04 -3.2292780804816928e-02 0.0000000000000000e+00  8.4340977842663689e-05 -3.3308966627340120e-02 0.0000000000000000e+00  4.0066326320817263e-05 -3.4342986058235200e-02 0.0000000000000000e+00  -1.4934928762995881e-05 -3.5389721177009635e-02 0.0000000000000000e+00  -7.6601155759119233e-05 -3.6452791484715211e-02 0.0000000000000000e+00  -1.4656159513370975e-04 -3.7530380877582890e-02 0.0000000000000000e+00  -2.2567165234734649e-04 -3.8620388748202283e-02 0.0000000000000000e+00  -3.1254694552487283e-04 -3.9715050521181301e-02 0.0000000000000000e+00  -4.1363016568946807e-04 -4.0822364292947250e-02 0.0000000000000000e+00  -5.2290636138925767e-04 -4.1948418368123651e-02 0.0000000000000000e+00  -6.2751976130240783e-04 -4.3074973955111104e-02 0.0000000000000000e+00  -7.4610108828897215e-04 -4.4211820519736246e-02 0.0000000000000000e+00  -8.5943022326907847e-04 -4.5361728578356082e-02 0.0000000000000000e+00  -9.7953912154476381e-04 -4.6516916950071409e-02 0.0000000000000000e+00  -1.1044521139155030e-03 -4.7686654327099350e-02 0.0000000000000000e+00  -1.2269206339190607e-03 -4.8858277453999198e-02 0.0000000000000000e+00  -1.3557877605687976e-03 -5.0037940960195107e-02 0.0000000000000000e+00  -1.4830266670515344e-03 -5.1223522483515103e-02 0.0000000000000000e+00  -1.6113729689459903e-03 -5.2408566099755152e-02 0.0000000000000000e+00  -6.3948893006624029e-03 -5.1922941021362669e-02 0.0000000000000000e+00  -6.2707077848416426e-03 -5.0748898830256628e-02 0.0000000000000000e+00  -6.1439635537903067e-03 -4.9575307819615819e-02 0.0000000000000000e+00  -6.0185757398274102e-03 -4.8400035733318067e-02 0.0000000000000000e+00  -5.8931156342766564e-03 -4.7229638142562799e-02 0.0000000000000000e+00  -5.7624967732610305e-03 -4.6056289103639618e-02 0.0000000000000000e+00  -5.6306530701803817e-03 -4.4890552620833003e-02 0.0000000000000000e+00  -5.4934517244688971e-03 -4.3734465766026707e-02 0.0000000000000000e+00  -5.3499263012602750e-03 -4.2582651538594272e-02 0.0000000000000000e+00  -5.2052749030786129e-03 -4.1449518602143798e-02 0.0000000000000000e+00  -5.0515063866100746e-03 -4.0325186794903496e-02 0.0000000000000000e+00  -4.9057411119616092e-03 -3.9219279646541198e-02 0.0000000000000000e+00  -4.7607193731728026e-03 -3.8140703161298077e-02 0.0000000000000000e+00  -4.6038502131112314e-03 -3.7066919596026315e-02 0.0000000000000000e+00  -4.4655803099881734e-03 -3.6014109517665011e-02 0.0000000000000000e+00  -4.3325784433815235e-03 -3.4987713477309799e-02 0.0000000000000000e+00  -4.1936872494881053e-03 -3.3966929004936294e-02 0.0000000000000000e+00  -4.0786615020046444e-03 -3.2966265091076516e-02 0.0000000000000000e+00  -3.9689990143980747e-03 -3.1986242736999466e-02 0.0000000000000000e+00  -3.8596942640868707e-03 -3.1010600392266840e-02 0.0000000000000000e+00  -3.7713136446982042e-03 -3.0054286142232212e-02 0.0000000000000000e+00  -3.6852407062039597e-03 -2.9113040576570239e-02 0.0000000000000000e+00  -3.6039970462034966e-03 -2.8173760518356003e-02 0.0000000000000000e+00  -3.5358375794966031e-03 -2.7252585375524330e-02 0.0000000000000000e+00  -3.4656883424424136e-03 -2.6341406593332950e-02 0.0000000000000000e+00  -3.4006753474188078e-03 -2.5430325251614767e-02 0.0000000000000000e+00  -3.3398037639597619e-03 -2.4533398280679908e-02 0.0000000000000000e+00  -3.2742558472075751e-03 -2.3641358950214322e-02 0.0000000000000000e+00  -3.2127957409468469e-03 -2.2749313564252010e-02 0.0000000000000000e+00  -3.1489915942274327e-03 -2.1867619256883939e-02 0.0000000000000000e+00  -3.0744241615872775e-03 -2.0991698477366916e-02 0.0000000000000000e+00  -2.9991461168317052e-03 -2.0113611942475136e-02 0.0000000000000000e+00  -2.9155383286567855e-03 -1.9246120819847574e-02 0.0000000000000000e+00  -2.8279414431786670e-03 -1.8381602129817865e-02 0.0000000000000000e+00  -2.7332840446059894e-03 -1.7526734727265233e-02 0.0000000000000000e+00  -2.6338745816710295e-03 -1.6681697942839024e-02 0.0000000000000000e+00  -2.5289305292957908e-03 -1.5843914106302738e-02 0.0000000000000000e+00  -2.4214930508242626e-03 -1.5016352133245363e-02 0.0000000000000000e+00  -2.3129542690004767e-03 -1.4199196558449839e-02 0.0000000000000000e+00  -2.2042430747535877e-03 -1.3396156489875225e-02 0.0000000000000000e+00  -2.0985822954784857e-03 -1.2607616689541676e-02 0.0000000000000000e+00  -1.9963118190167222e-03 -1.1829068489510998e-02 0.0000000000000000e+00  -1.8986111679977443e-03 -1.1067401132029234e-02 0.0000000000000000e+00  -1.7974617466277741e-03 -1.0321886409230176e-02 0.0000000000000000e+00  -1.7075028927500729e-03 -9.5975010016447725e-03 0.0000000000000000e+00  -1.6165946683186377e-03 -8.8982575307016906e-03 0.0000000000000000e+00  -1.5374407621430424e-03 -8.2160466090587178e-03 0.0000000000000000e+00  -1.4638812508571940e-03 -7.5641415694726218e-03 0.0000000000000000e+00  -1.3991397795581582e-03 -6.9282026063129231e-03 0.0000000000000000e+00  -1.3417813222253365e-03 -6.3196379427358333e-03 0.0000000000000000e+00  -1.2770060898801311e-03 -5.7306141375272658e-03 0.0000000000000000e+00  -1.2251510814213359e-03 -5.1683306203558566e-03 0.0000000000000000e+00  -1.1644049389485454e-03 -4.6352915434079685e-03 0.0000000000000000e+00  -1.1148218404272434e-03 -4.1257633668165235e-03 0.0000000000000000e+00  -1.0600940400219529e-03 -3.6548741275470153e-03 0.0000000000000000e+00  -1.0016393658787831e-03 -3.1924099249103330e-03 0.0000000000000000e+00  -9.4588558362655099e-04 -2.7723421683143804e-03 0.0000000000000000e+00  -8.7503530920805231e-04 -2.3773019609218595e-03 0.0000000000000000e+00  -8.1376552178852931e-04 -2.0117381947328686e-03 0.0000000000000000e+00  -7.4480791763932585e-04 -1.6842997955547213e-03 0.0000000000000000e+00  -6.7738143564397110e-04 -1.3795967598024842e-03 0.0000000000000000e+00  -6.0826503122489147e-04 -1.1124753605489851e-03 0.0000000000000000e+00  -5.2823422915144048e-04 -8.7001290374084060e-04 0.0000000000000000e+00  -4.6028741010239695e-04 -6.6069708235854307e-04 0.0000000000000000e+00  -3.8166901855877144e-04 -4.8273987881295539e-04 0.0000000000000000e+00  -3.1354056984619829e-04 -3.3955032998361025e-04 0.0000000000000000e+00  -2.3917710853571249e-04 -2.2605618408547525e-04 0.0000000000000000e+00  -1.7357097513327782e-04 -1.3354887360571738e-04 0.0000000000000000e+00  -1.1287866861356183e-04 -7.2495295750921017e-05 0.0000000000000000e+00  -5.5201861439646086e-05 -4.3344516958959551e-05 0.0000000000000000e+00  -5.3229848808637207e-03 -5.3222710187209879e-02 0.0000000000000000e+00  -2.9349804977718578e-03 -5.3470716399437263e-02 0.0000000000000000e+00  1.2045083522167588e-06 -3.1318467296547629e-05 0.0000000000000000e+00  -2.6148529718677924e-03 -3.9996152962506408e-02 0.0000000000000000e+00  -3.2823445082609789e-03 -4.5775895481267245e-02 0.0000000000000000e+00  -2.0369946947081967e-05 -4.1325051831628252e-04 0.0000000000000000e+00  -2.0344807315634092e-03 -3.3693764596214690e-02 0.0000000000000000e+00  -2.3033576921336462e-03 -3.6816903619516665e-02 0.0000000000000000e+00  -1.2688460730631441e-04 -1.1279936878536743e-03 0.0000000000000000e+00  -3.7822803763753791e-03 -4.9219824677970814e-02 0.0000000000000000e+00  -1.1647885312305587e-04 -2.1216815043516250e-03 0.0000000000000000e+00  -2.2229691829822790e-05 -4.4901405159726649e-03 0.0000000000000000e+00  -1.8373552585782338e-03 -3.0710871863111257e-02 0.0000000000000000e+00  -1.1432810001714864e-04 -6.6121673257170327e-03 0.0000000000000000e+00  -1.6919477226372466e-03 -2.7862513977692235e-02 0.0000000000000000e+00  -1.8369707340501045e-04 -8.6775083282403624e-03 0.0000000000000000e+00  -4.0443528367848004e-04 -1.1565751242199841e-02 0.0000000000000000e+00  -1.6351729989874610e-03 -2.5054214342239024e-02 0.0000000000000000e+00  -1.4219476398129054e-03 -2.2402576957089169e-02 0.0000000000000000e+00  -6.3616388339827535e-04 -1.3887984707921908e-02 0.0000000000000000e+00  -9.4075424423755382e-04 -1.6407671523014828e-02 0.0000000000000000e+00  -1.2527843543348382e-03 -1.9685793255411869e-02 0.0000000000000000e+00  -1.1488865480846955e-04 -2.8923956183299106e-03 0.0000000000000000e+00  -3.0078026193544262e-03 -4.3473833032961859e-02 0.0000000000000000e+00  -1.1150470375115981e-03 -1.7850295461348743e-02 0.0000000000000000e+00  -8.9552811048294076e-05 -5.5763289011897515e-03 0.0000000000000000e+00  -2.6801264340927999e-04 -1.0247166606191882e-02 0.0000000000000000e+00  -6.8373511701242540e-05 -7.4118540828119347e-04 0.0000000000000000e+00  -4.3174602088474840e-03 -5.1181469236912275e-02 0.0000000000000000e+00  1.2921431522081506e-05 -1.7063063253352267e-04 0.0000000000000000e+00  -1.0795506511950242e-03 -2.3746818460897726e-02 0.0000000000000000e+00  -1.2981879072871433e-03 -2.9231352341324544e-02 0.0000000000000000e+00  -1.4448513985287925e-03 -3.2150981354515711e-02 0.0000000000000000e+00  -8.7780241599204778e-04 -1.2712684856083364e-02 0.0000000000000000e+00  -1.1851649831235319e-03 -2.6440351147528924e-02 0.0000000000000000e+00  -1.6505853902511638e-03 -3.5211796429012149e-02 0.0000000000000000e+00  -9.5204519867072256e-04 -2.1120441098962644e-02 0.0000000000000000e+00  -1.9315404581987524e-03 -3.8407751866763519e-02 0.0000000000000000e+00  -1.1667029397834055e-03 -1.5135502906465211e-02 0.0000000000000000e+00  -4.3456350151730046e-04 -7.5644885835971926e-03 0.0000000000000000e+00  -2.5011026165045901e-04 -1.6481876240208417e-03 0.0000000000000000e+00  -4.0059698019326547e-03 -4.7393858972461088e-02 0.0000000000000000e+00  -3.4749013596350560e-03 -4.1578264651245853e-02 0.0000000000000000e+00  1.5735811290772681e-04 -3.6110101672082442e-03 0.0000000000000000e+00  -1.8620925716574127e-03 -4.1286199938666029e-02 0.0000000000000000e+00  -4.8371205974305932e-04 -3.8147944160478167e-03 0.0000000000000000e+00  -3.3747340884641504e-03 -3.8742662645107215e-02 0.0000000000000000e+00  -3.0162753126589193e-03 -3.5547585012426650e-02 0.0000000000000000e+00  -2.7324084051209611e-03 -3.2495612211960269e-02 0.0000000000000000e+00  -2.6076542785305021e-03 -4.8054610249122803e-02 0.0000000000000000e+00  1.3851149989924097e-04 -1.5180353612955881e-03 0.0000000000000000e+00  -2.3553827151418087e-03 -2.6785473514976423e-02 0.0000000000000000e+00  -2.5194577136559578e-03 -2.9580468335957101e-02 0.0000000000000000e+00  1.1616999342522140e-04 -1.2451759158279181e-02 0.0000000000000000e+00  3.7108697804205123e-04 -7.3042620590924676e-03 0.0000000000000000e+00  -2.1676630654232126e-03 -2.3294896601265387e-02 0.0000000000000000e+00  -2.0490923738653560e-03 -2.1436153808053134e-02 0.0000000000000000e+00  -1.2986552107991368e-04 -1.4867712004031646e-02 0.0000000000000000e+00  -2.5360229690601020e-05 -1.1899978405983196e-05 0.0000000000000000e+00  1.4860804199819186e-05 -7.7512810481127787e-06 0.0000000000000000e+00  -5.5029573910519427e-04 -1.9062067542035644e-02 0.0000000000000000e+00  -7.5743735867809310e-04 -9.2116554126303943e-03 0.0000000000000000e+00  -5.3787326284476984e-04 -4.8850485294545266e-03 0.0000000000000000e+00  -2.0112064322131963e-04 -5.4908888616201615e-04 0.0000000000000000e+00  -2.6936355149268133e-04 -9.7055776933462610e-04 0.0000000000000000e+00  -3.7056813620003643e-04 -1.7334143338031016e-02 0.0000000000000000e+00  -5.7602301060569476e-04 -5.9763576750624884e-03 0.0000000000000000e+00  -9.2379061986397456e-04 -1.0720383136135804e-02 0.0000000000000000e+00  -4.2396412673399058e-04 -2.6040745879145734e-03 0.0000000000000000e+00  -2.2198816628055409e-03 -4.4441989306191552e-02 0.0000000000000000e+00  -4.0575374759868627e-03 -4.4324183277304599e-02 0.0000000000000000e+00  1.9045267568018026e-04 -2.5707966785477624e-03 0.0000000000000000e+00  -1.3250255367834918e-04 -2.4609625149074339e-04 0.0000000000000000e+00  -2.6685636212719489e-03 -5.0422294101155618e-02 0.0000000000000000e+00  -1.9624540131546499e-03 -1.8929285139871493e-02 0.0000000000000000e+00  -1.7125761854955893e-03 -1.7156384604264701e-02 0.0000000000000000e+00  4.1437962834455508e-04 -4.8508387254225576e-03 0.0000000000000000e+00  1.1965518654599415e-04 -5.4411874323578673e-04 0.0000000000000000e+00  1.5453725082315215e-04 -9.8944829314940468e-04 0.0000000000000000e+00  4.2164481392079078e-04 -9.3069832289016195e-03 0.0000000000000000e+00  5.0528881238873246e-04 -5.9700249893278896e-03 0.0000000000000000e+00  4.4123229256499584e-04 -1.0798137456075763e-02 0.0000000000000000e+00  -8.0028847842661367e-05 -1.2213702852218432e-04 0.0000000000000000e+00  -3.0171364283117065e-03 -5.2087195305616611e-02 0.0000000000000000e+00  -3.3406662641894706e-03 -3.7460368761494396e-02 0.0000000000000000e+00  -3.0042827436195670e-03 -3.4323157853843357e-02 0.0000000000000000e+00  1.8560693778772865e-04 -1.8944868334060195e-03 0.0000000000000000e+00  -2.7424594297332881e-03 -3.1328751482011280e-02 0.0000000000000000e+00  -2.3397022507297797e-03 -4.6688714749695680e-02 0.0000000000000000e+00  -2.5460606648252935e-03 -2.8465769388432420e-02 0.0000000000000000e+00  -2.3895516586002904e-03 -2.5718708525594294e-02 0.0000000000000000e+00  4.2579893928223431e-04 -8.0960146551881593e-03 0.0000000000000000e+00  -2.3114873977688505e-03 -2.4328922475271360e-02 0.0000000000000000e+00  1.0009811305164845e-04 -1.3399388271946760e-02 0.0000000000000000e+00  -2.0606681611125138e-03 -2.0405758795601518e-02 0.0000000000000000e+00  -1.5398722208122346e-04 -1.5841415330683974e-02 0.0000000000000000e+00  -4.8063168203480999e-03 -5.0020826811223357e-02 0.0000000000000000e+00  -1.8650716111116255e-03 -4.2609395328653675e-02 0.0000000000000000e+00  -5.1435518970960054e-04 -3.2770033231616924e-03 0.0000000000000000e+00  9.5625093061436006e-05 -2.6952378441977184e-04 0.0000000000000000e+00  5.1297409995541451e-05 -9.3275047402796265e-05 0.0000000000000000e+00  -6.1002650394478939e-04 -2.2921742839115616e-02 0.0000000000000000e+00  -1.6246550191149260e-03 -1.5874211384159450e-02 0.0000000000000000e+00  -7.0424432483603657e-04 -2.5588784041573606e-02 0.0000000000000000e+00  -1.0909769650053699e-03 -3.4253436585968897e-02 0.0000000000000000e+00  -8.1429246495270512e-04 -2.8343358186509102e-02 0.0000000000000000e+00  -9.2886694414691937e-04 -3.1226852248503332e-02 0.0000000000000000e+00  -1.2280181420012476e-03 -1.3491740185290277e-02 0.0000000000000000e+00  -5.1184078657274612e-04 -2.0332470295389125e-02 0.0000000000000000e+00  -7.6677295900048762e-04 -8.1889708233062151e-03 0.0000000000000000e+00  -1.1646561057068530e-03 -1.1921051653416030e-02 0.0000000000000000e+00  -1.4973396910092694e-03 -3.9527675358312794e-02 0.0000000000000000e+00  -7.1066307626548183e-04 -6.9396677045791061e-03 0.0000000000000000e+00  -1.4749429507819203e-03 -3.7359756083668393e-02 0.0000000000000000e+00  -4.2298097824007590e-04 -1.9594838344836746e-03 0.0000000000000000e+00  -3.6901255950766231e-04 -1.3610517192025975e-03 0.0000000000000000e+00  -4.6580180688102144e-03 -4.8389060992894938e-02 0.0000000000000000e+00  -4.4546454638328637e-03 -4.6206518100613075e-02 0.0000000000000000e+00  -1.2350072363261193e-03 -3.3226398346136748e-02 0.0000000000000000e+00  -1.0832749022048878e-03 -3.0251960462397889e-02 0.0000000000000000e+00  -8.2632888222379497e-04 -2.4661584989386594e-02 0.0000000000000000e+00  -1.3995226361443486e-03 -3.6315343338923153e-02 0.0000000000000000e+00  -9.7197715180191290e-04 -2.7415146179649474e-02 0.0000000000000000e+00  -7.0327844004895593e-04 -2.2019885596688410e-02 0.0000000000000000e+00  -1.3155993207556414e-03 -1.4280527055953160e-02 0.0000000000000000e+00  3.0200939928982831e-04 -3.1832039493818851e-03 0.0000000000000000e+00  -4.0407703590222338e-03 -4.2616942983797798e-02 0.0000000000000000e+00  -3.7466421278907159e-03 -4.0477804363148587e-02 0.0000000000000000e+00  3.4875650407217401e-04 -4.07880032527766