<?xml version="1.0"?>
<VTKFile type="UnstructuredGrid"  version="0.1"  >
<UnstructuredGrid>
<Piece  NumberOfPoints="439" NumberOfCells="725">
<Points>
<DataArray  type="Float64"  NumberOfComponents="3"  format="ascii">0.6000021054197514 0.1896019634081427 0  0.5999987836901949 0.2096019636384583 0  0.2489897949 0.21 0  0.2489897949 0.19 0  0.6000004444913664 0.1996019636726142 0  0.2496355385699469 0.2060260530378829 0  0.249959460510575 0.2020130349814059 0  0.2499594605105767 0.1979869650186357 0  0.24963553856995 0.1939739469621422 0  0.2539401571849238 0.2099931027720118 0  0.2588899191656145 0.2099859304430754 0  0.2638390842254856 0.2099773878898653 0  0.2687872526364194 0.20996548619507 0  0.2737345028660737 0.2099522745090303 0  0.2786812964333514 0.2099371006294249 0  0.2836273503835756 0.2099214287840095 0  0.2885726969170166 0.2099046480124405 0  0.2935176241974669 0.2098873102218589 0  0.2984621115500217 0.2098696611823403 0  0.3034062344204096 0.2098518880060738 0  0.3083500902783551 0.2098342009083875 0  0.3132935433343346 0.2098166997244977 0  0.3182366516693953 0.2097995430833615 0  0.323179661467285 0.2097827728225569 0  0.3281224015678322 0.2097667227969034 0  0.3330650109251096 0.2097511230096825 0  0.3380074865281765 0.2097364015785268 0  0.3429499821887881 0.2097221874082407 0  0.3478923526333046 0.2097088561529514 0  0.3528347320432146 0.2096962132857266 0  0.3577771577048935 0.2096843189221355 0  0.3627193616222583 0.2096736165554191 0  0.3676615251760821 0.2096631127647612 0  0.372603809977451 0.2096537706755427 0  0.3775462026571577 0.2096449549261366 0  0.3824885892294154 0.2096370205664481 0  0.3874310527733651 0.2096297452733386 0  0.3923736416840756 0.2096231083246963 0  0.397316122045594 0.209617452882763 0  0.4022586198637 0.2096118933972242 0  0.4072013683140363 0.2096072413288124 0  0.4121440857297619 0.209603247161133 0  0.4170868302248692 0.2095994043539517 0  0.4220297731633414 0.2095963226852894 0  0.4269726166189047 0.2095935693053949 0  0.431915675954836 0.2095912494939408 0  0.4368586643218801 0.2095893637572158 0  0.4418018222608481 0.2095877484178119 0  0.4467450382896967 0.2095865032321382 0  0.4516882698877853 0.2095854993233898 0  0.4566315459655561 0.2095847701878026 0  0.4615749209534609 0.2095842854206922 0  0.4665183065636265 0.2095839735907954 0  0.4714617343675384 0.2095838673727895 0  0.476405235550643 0.2095839325606217 0  0.4813487577582773 0.2095841165726643 0  0.4862923141040984 0.2095844406161536 0  0.4912359216991225 0.2095848669148978 0  0.4961795475367016 0.2095853675507579 0  0.5011231993951035 0.2095859542705039 0  0.5060668858291947 0.2095866017143742 0  0.511010586884328 0.2095872901857733 0  0.515954307341613 0.2095880268532094 0  0.5208980495692828 0.2095887939225611 0  0.5258418008843461 0.2095895810041063 0  0.5307855654208208 0.209590389519206 0  0.5357293429649902 0.2095912097813631 0  0.5406731295432976 0.2095920375963422 0  0.5456169231806125 0.2095928705927323 0  0.5505607213519501 0.2095937048844319 0  0.5555045222604178 0.2095945382735661 0  0.5604483271257822 0.2095953714674699 0  0.5653921339099518 0.2095962021201392 0  0.5703359411001236 0.2095970304465369 0  0.5752797491934929 0.2095978555035599 0  0.580223557181646 0.2095986797819219 0  0.5851673643982417 0.2095995015954171 0  0.5901111712695343 0.2096003221615471 0  0.5950549777572267 0.2096011430172178 0  0.5950582999130177 0.1896011424247252 0  0.5901144951360687 0.1896003214217413 0  0.5851706907537201 0.1895995005853376 0  0.5802268873017415 0.1895986784040339 0  0.5752830845271476 0.1895978544422037 0  0.5703392818161582 0.1895970287594025 0  0.5653954786579458 0.1895962001820387 0  0.5604516751928311 0.189595369246034 0  0.5555078697822718 0.1895945357180799 0  0.5505640614002785 0.1895937014864698 0  0.5456202492711725 0.1895928664248164 0  0.5406764326740202 0.1895920338333527 0  0.5357326076743638 0.1895912082434972 0  0.5307887755077806 0.1895903839286955 0  0.525844935076218 0.1895895755074574 0  0.5209010769461047 0.189588793033095 0  0.5159572063156082 0.1895880169348982 0  0.5110133261859171 0.1895872832270473 0  0.5060694157479926 0.1895866041190133 0  0.5011254853735181 0.1895859389766935 0  0.4961815450442764 0.1895853580205842 0  0.4912375581167657 0.1895848755245996 0  0.4862935421037402 0.1895844181719708 0  0.4813495184016602 0.1895841045207232 0  0.4764054257628658 0.1895839536275771 0  0.4714612940516666 0.1895838660235869 0  0.4665171409501493 0.189583960882647 0  0.4615729043313516 0.1895843187453117 0  0.4566286376754222 0.1895847202123848 0  0.4516843921014447 0.1895854470492973 0  0.4467399887214277 0.1895865431814431 0  0.4417955241855222 0.1895877321690262 0  0.4368510345434554 0.1895893643186111 0  0.4319065339446065 0.1895912457363577 0  0.4269619554043282 0.1895935256906523 0  0.4220173448645094 0.1895963401720859 0  0.4170725693690613 0.1895994318534115 0  0.4121278010361908 0.1896030986369443 0  0.4071828851579575 0.189607242455806 0  0.4022378556543879 0.1896119654384821 0  0.3972927954862565 0.1896173293336325 0  0.392347815328724 0.1896231978752802 0  0.3874027941241333 0.1896298044373883 0  0.3824574335107381 0.1896369264460346 0  0.3775122829315081 0.1896448998037049 0  0.372566820740163 0.1896536776747981 0  0.3676215717824184 0.1896630914090646 0  0.3626761912704529 0.1896734377844876 0  0.3577309536372028 0.1896843875283112 0  0.3527857374597136 0.1896962380154461 0  0.347840222680731 0.1897087046969637 0  0.3428950421593602 0.1897220290356104 0  0.3379496539471253 0.1897362210473349 0  0.3330046447932323 0.1897510479565628 0  0.3280596728706119 0.1897667744856689 0  0.323114755748746 0.1897826761910246 0  0.3181701127932469 0.1897994397602124 0  0.3132255484359296 0.1898165786621148 0  0.3082813350699672 0.1898340565478629 0  0.3033374060993047 0.1898517574746142 0  0.2983938295352196 0.1898695287044275 0  0.2934506368653493 0.1898871719897345 0  0.2885079841783544 0.1899046441029762 0  0.2835656278199832 0.1899213538501157 0  0.278624209450854 0.1899375257431597 0  0.2736831550604665 0.1899520269730579 0  0.2687433462581534 0.1899652227468008 0  0.2638038031857706 0.1899770858644429 0  0.2588649440081559 0.1899864629311112 0  0.2539269736231431 0.189992800630663 0  0.600001275004582 0.1946019635475377 0  0.5999996139292189 0.2046019636839445 0  0.2589741331076835 0.2005427828173313 0  0.543146684555228 0.1995924428946937 0  0.5682402400899212 0.1995671382879096 0  0.2774534747834806 0.2007371969022845 0  0.5138500552569208 0.1994899930109731 0  0.5286814686023674 0.1994923573686338 0  0.2945087418647983 0.1991754106733909 0  0.5827786039728536 0.1991420849720601 0  0.3104129897167233 0.1997969381530481 0  0.3370030330542309 0.2005677072210277 0  0.4990186409203081 0.1994879353100628 0  0.3552820568560153 0.1996892562698702 0  0.4841872257236829 0.1994864657682751 0  0.3707378964337873 0.1996702292780107 0  0.3898887242007013 0.1996255667387462 0  0.468986212805099 0.199125309740696 0  0.4541582113583077 0.1995847759288561 0  0.4043540882302321 0.199706734626754 0  0.4195515927625756 0.1995971356221563 0  0.4387024662033194 0.1995739613381233 0  0.3202476033443546 0.1998007827738939 0  0.5584058024120633 0.1995861410121176 0  0.4280670999887095 0.1994413578396622 0  0.3467668885678771 0.199861802613174 0  0.3813733886789358 0.1997888397855443 0  0.2860684899832718 0.1999555221829478 0  0.591123117355756 0.1978454061703479 0  0.2679925161793481 0.2016453572477836 0  0.461574158499487 0.201834356067182 0  0.4912365694417846 0.2018351014844204 0  0.5060678762743014 0.2018368875694304 0  0.3973018256238558 0.1973661451757042 0  0.4764053234103234 0.201834096046857 0  0.5208992291762337 0.2018391161186519 0  0.4467431141743755 0.2018364741551995 0  0.5357306128759862 0.2018415566267527 0  0.4121340172450388 0.1973520926853228 0  0.362692967026349 0.1974220756463428 0  0.3033643068081081 0.1976015415431488 0  0.5752817918473759 0.1973474931769483 0  0.5504607815837853 0.1967221597392853 0  0.3282020888775921 0.2026371621421636 0  0.5484177128801546 0.2034336594079281 0  0.3302233202306688 0.1959188881887707 0  0.537922166392912 0.1957167428127016 0  0.5230907075991783 0.1957142856071687 0  0.5082592011667343 0.195712014866348 0  0.5774713301125158 0.2034730403938099 0  0.3011944151578788 0.2037347023890917 0  0.4785959384335024 0.1957090075430767 0  0.4934276213910425 0.1957101465405505 0  0.3951185881912551 0.2034939316744334 0  0.3605157535528937 0.2035521394779841 0  0.4593829011201414 0.1957093894185521 0  0.4489321170804381 0.1957108514398929 0  0.4099486427087041 0.2034790811793053 0  0.2557837436359497 0.1960807599389828 0  0.2550167877158102 0.203438480513811 0  0.4348052507554143 0.2033634003197977 0  0.3746299987076855 0.1958752995048822 0  0.3406152119085711 0.1957745944583617 0  0.2812887732718694 0.1959769836659945 0  0.2912561681789325 0.1959773828450123 0  0.4246733532776676 0.2035475420316187 0  0.3501525625211293 0.1957487167605184 0  0.3847633506694726 0.1956794989510752 0  0.3166198630897608 0.1959639233975382 0  0.5621548153686865 0.2033773069925253 0  0.5624424900303672 0.1956718975154529 0  0.316252689458948 0.2036738389114977 0  0.2710792010738001 0.1959309637919965 0  0.5873010969592566 0.2043226441427378 0  0.4346665449726468 0.1950548897543045 0  0.424327707096998 0.1954701473351642 0  0.3402698623839402 0.2045230353580673 0  0.2808823385971296 0.2047057443629205 0  0.2914233896195794 0.2046761195149604 0  0.3747799733030291 0.2041837659914363 0  0.3499352531062019 0.2048781681215225 0  0.3845365742527392 0.2048086295214483 0  0.2648079486550846 0.196186138054998 0  0.594324537386794 0.2036425640597768 0  0.5320984098856542 0.1952350971727328 0  0.5172669318902188 0.1952326970195178 0  0.3070073017527042 0.2041856554440158 0  0.5024353911752812 0.195230557702284 0  0.57166002377682 0.2039440555957328 0  0.4876037577164672 0.1952289360898707 0  0.472815599825222 0.1952239408402533 0  0.3663396428579573 0.2040324276197
[...]
<PointData  Vectors="d"> 
<DataArray  type="Float64"  Name="d"  NumberOfComponents="3" format="ascii">2.1054197514323434e-06 -3.9803659185728979e-04 0.0000000000000000e+00  -1.2163098050481280e-06 -3.9803636154164823e-04 0.0000000000000000e+00  0.0000000000000000e+00 0.0000000000000000e+00 0.0000000000000000e+00  0.0000000000000000e+00 0.0000000000000000e+00 0.0000000000000000e+00  4.4449136641594941e-07 -3.9803632738580607e-04 0.0000000000000000e+00  0.0000000000000000e+00 0.0000000000000000e+00 0.0000000000000000e+00  0.0000000000000000e+00 0.0000000000000000e+00 0.0000000000000000e+00  0.0000000000000000e+00 0.0000000000000000e+00 0.0000000000000000e+00  0.0000000000000000e+00 0.0000000000000000e+00 0.0000000000000000e+00  6.5565792945161612e-06 -6.8972279882279926e-06 0.0000000000000000e+00  1.2512854360295391e-05 -1.4069556924572123e-05 0.0000000000000000e+00  1.7872208593468447e-05 -2.2612110134723579e-05 0.0000000000000000e+00  2.2234913889417014e-05 -3.4513804929968748e-05 0.0000000000000000e+00  2.5679437916813810e-05 -4.7725490969707850e-05 0.0000000000000000e+00  2.8667299576116323e-05 -6.2899370575110876e-05 0.0000000000000000e+00  3.0915544181877170e-05 -7.8571215990436789e-05 0.0000000000000000e+00  3.2456372000060973e-05 -9.5351987559486541e-05 0.0000000000000000e+00  3.3577946814619641e-05 -1.1268977814112313e-04 0.0000000000000000e+00  3.4259593750840356e-05 -1.3033881765971424e-04 0.0000000000000000e+00  3.4576758509872854e-05 -1.4811199392618818e-04 0.0000000000000000e+00  3.4626910836996128e-05 -1.6579909161247946e-04 0.0000000000000000e+00  3.4274261198066015e-05 -1.8330027550233810e-04 0.0000000000000000e+00  3.3576890640362437e-05 -2.0045691663850962e-04 0.0000000000000000e+00  3.2780982911809549e-05 -2.1722717744310105e-04 0.0000000000000000e+00  3.1715377840542772e-05 -2.3327720309662683e-04 0.0000000000000000e+00  3.0519029488799813e-05 -2.4887699031744522e-04 0.0000000000000000e+00  2.9188926948116089e-05 -2.6359842147315540e-04 0.0000000000000000e+00  2.7878881930524229e-05 -2.7781259175929679e-04 0.0000000000000000e+00  2.6443620828625292e-05 -2.9114384704858801e-04 0.0000000000000000e+00  2.5017325120163374e-05 -3.0378671427339098e-04 0.0000000000000000e+00  2.3637281180772612e-05 -3.1568107786446087e-04 0.0000000000000000e+00  2.2035492927176424e-05 -3.2638344458086238e-04 0.0000000000000000e+00  2.0393341132651172e-05 -3.3688723523877466e-04 0.0000000000000000e+00  1.8872436872233456e-05 -3.4622932445733321e-04 0.0000000000000000e+00  1.7459410969991450e-05 -3.5504507386343350e-04 0.0000000000000000e+00  1.6040277603422270e-05 -3.6297943355192850e-04 0.0000000000000000e+00  1.4698115931367015e-05 -3.7025472666140128e-04 0.0000000000000000e+00  1.3481321012523711e-05 -3.7689167530367433e-04 0.0000000000000000e+00  1.2155976923435910e-05 -3.8254711723695046e-04 0.0000000000000000e+00  1.0848089401402753e-05 -3.8810660277582376e-04 0.0000000000000000e+00  9.7908341255884121e-06 -3.9275867118762598e-04 0.0000000000000000e+00  8.7025442307897090e-06 -3.9675283886701882e-04 0.0000000000000000e+00  7.6413337173705255e-06 -4.0059564604828676e-04 0.0000000000000000e+00  6.7785665778436092e-06 -4.0367731471060899e-04 0.0000000000000000e+00  5.8163165128845077e-06 -4.0643069460504888e-04 0.0000000000000000e+00  5.0699468107782620e-06 -4.0875050605918624e-04 0.0000000000000000e+00  4.2526082028067553e-06 -4.1063624278418948e-04 0.0000000000000000e+00  3.6048415151684949e-06 -4.1225158218805415e-04 0.0000000000000000e+00  3.0151647000220413e-06 -4.1349676786175228e-04 0.0000000000000000e+00  2.4410571408215620e-06 -4.1450067661019923e-04 0.0000000000000000e+00  1.9114292696295312e-06 -4.1522981219742339e-04 0.0000000000000000e+00  1.4807115449573497e-06 -4.1571457930781669e-04 0.0000000000000000e+00  1.0606160599519028e-06 -4.1602640920455062e-04 0.0000000000000000e+00  6.8271433864029059e-07 -4.1613262721050504e-04 0.0000000000000000e+00  3.7819177618659322e-07 -4.1606743937831249e-04 0.0000000000000000e+00  9.4693763946083168e-08 -4.1588342733564552e-04 0.0000000000000000e+00  -1.5466607762541845e-07 -4.1555938384639469e-04 0.0000000000000000e+00  -3.5277668407917371e-07 -4.1513308510216434e-04 0.0000000000000000e+00  -5.3264475950843136e-07 -4.1463244924206099e-04 0.0000000000000000e+00  -6.8649198610309805e-07 -4.1404572949611064e-04 0.0000000000000000e+00  -8.0576355461813787e-07 -4.1339828562576299e-04 0.0000000000000000e+00  -9.1041405929438616e-07 -4.1270981422668232e-04 0.0000000000000000e+00  -9.9566239063049977e-07 -4.1197314679060847e-04 0.0000000000000000e+00  -1.0591403587545577e-06 -4.1120607743887010e-04 0.0000000000000000e+00  -1.1135309541047630e-06 -4.1041899589367489e-04 0.0000000000000000e+00  -1.1547001182582249e-06 -4.0961048079397882e-04 0.0000000000000000e+00  -1.1828616085498091e-06 -4.0879021863690667e-04 0.0000000000000000e+00  -1.2019889390015002e-06 -4.0796240365784206e-04 0.0000000000000000e+00  -1.2140572404605585e-06 -4.0712940726772220e-04 0.0000000000000000e+00  -1.2215915407501213e-06 -4.0629511556806845e-04 0.0000000000000000e+00  -1.2263887278272241e-06 -4.0546172643394108e-04 0.0000000000000000e+00  -1.2272290062834732e-06 -4.0462853253010153e-04 0.0000000000000000e+00  -1.2261504962962396e-06 -4.0379787986073772e-04 0.0000000000000000e+00  -1.2246659879756961e-06 -4.0296955346309131e-04 0.0000000000000000e+00  -1.2222782529503051e-06 -4.0214449644008750e-04 0.0000000000000000e+00  -1.2199957374010124e-06 -4.0132021807806509e-04 0.0000000000000000e+00  -1.2184847924248848e-06 -4.0049840458287783e-04 0.0000000000000000e+00  -1.2173191465825808e-06 -3.9967783845293672e-04 0.0000000000000000e+00  -1.2165371136676781e-06 -3.9885698278222160e-04 0.0000000000000000e+00  2.1056186344759866e-06 -3.9885757527480410e-04 0.0000000000000000e+00  2.1065473106787321e-06 -3.9967857825871792e-04 0.0000000000000000e+00  2.1078706006836300e-06 -4.0049941466237092e-04 0.0000000000000000e+00  2.1101242688696812e-06 -4.0132159596609679e-04 0.0000000000000000e+00  2.1130552962083059e-06 -4.0214555779628986e-04 0.0000000000000000e+00  2.1160499273380603e-06 -4.0297124059750960e-04 0.0000000000000000e+00  2.1185973277679680e-06 -4.0379981796131759e-04 0.0000000000000000e+00  2.1208378422685280e-06 -4.0463075396594985e-04 0.0000000000000000e+00  2.1211329137626602e-06 -4.0546428192007411e-04 0.0000000000000000e+00  2.1184565749892523e-06 -4.0629851353018407e-04 0.0000000000000000e+00  2.1120330682665354e-06 -4.0713357518362301e-04 0.0000000000000000e+00  2.1011415152121974e-06 -4.0796616664725682e-04 0.0000000000000000e+00  2.0818474676501050e-06 -4.0879175650279501e-04 0.0000000000000000e+00  2.0553865175707998e-06 -4.0961607130450035e-04 0.0000000000000000e+00  2.0206605551641916e-06 -4.1042449254255953e-04 0.0000000000000000e+00  1.9682360802548426e-06 -4.1120696690498040e-04 0.0000000000000000e+00  1.9033111863768250e-06 -4.1198306510185857e-04 0.0000000000000000e+00  1.8288870944954530e-06 -4.1271677295266003e-04 0.0000000000000000e+00  1.7241547748951838e-06 -4.1339588098674405e-04 0.0000000000000000e+00  1.5994859375077668e-06 -4.1406102330648637e-04 0.0000000000000000e+00  1.4648623043671697e-06 -4.1464197941581298e-04 0.0000000000000000e+00  1.2836404126165067e-06 -4.1512447540039408e-04 0.0000000000000000e+00  1.0733330058357036e-06 -4.1558182802917164e-04 0.0000000000000000e+00  8.5533655565904535e-07 -4.1589547927682244e-04 0.0000000000000000e+00  5.6840336919348538e-07 -4.1604637242291596e-04 0.0000000000000000e+00  2.4239779832856695e-07 -4.1613397641306488e-04 0.0000000000000000e+00  -1.0499810620125570e-07 -4.1603911735298024e-04 0.0000000000000000e+00  -5.3591128335985960e-07 -4.1568125468826234e-04 0.0000000000000000e+00  -9.9686158824525959e-07 -4.1527978761524636e-04 0.0000000000000000e+00  -1.4367299361417841e-06 -4.1455295070268617e-04 0.0000000000000000e+00  -2.0344043439361494e-06 -4.1345681855693098e-04 0.0000000000000000e+00  -2.6932346243330247e-06 -4.1226783097375645e-04 0.0000000000000000e+00  -3.3771710742827942e-06 -4.1063568138894355e-04 0.0000000000000000e+00  -4.0720643066532643e-06 -4.0875426364225695e-04 0.0000000000000000e+00  -4.8448989583966391e-06 -4.0647430934769691e-04 0.0000000000000000e+00  -5.6497331387475930e-06 -4.0365982791413049e-04 0.0000000000000000e+00  -6.6195229442781539e-06 -4.0056814658851283e-04 0.0000000000000000e+00  -7.5821501686055393e-06 -3.9690136305572731e-04 0.0000000000000000e+00  -8.6923227419547340e-06 -3.9275754419395388e-04 0.0000000000000000e+00  -9.9161206599396080e-06 -3.8803456151790725e-04 0.0000000000000000e+00  -1.1170583133582859e-05 -3.8267066636750696e-04 0.0000000000000000e+00  -1.2345035030754776e-05 -3.7680212471977290e-04 0.0000000000000000e+00  -1.3560533974887955e-05 -3.7019556261172753e-04 0.0000000000000000e+00  -1.5115441744336418e-05 -3.6307355396545711e-04 0.0000000000000000e+00  -1.6460315317703698e-05 -3.5510019629506827e-04 0.0000000000000000e+00  -1.8116801014331152e-05 -3.4632232520188764e-04 0.0000000000000000e+00  -1.9560053090078556e-05 -3.3690859093539119e-04 0.0000000000000000e+00  -2.1134859408476510e-05 -3.2656221551234714e-04 0.0000000000000000e+00  -2.2566787008016770e-05 -3.1561247168882157e-04 0.0000000000000000e+00  -2.3977258875435226e-05 -3.0376198455390872e-04 0.0000000000000000e+00  -2.5686332199994968e-05 -2.9129530303626650e-04 0.0000000000000000e+00  -2.7061147931798336e-05 -2.7797096438957579e-04 0.0000000000000000e+00  -2.8643654528291734e-05 -2.6377895266510608e-04 0.0000000000000000e+00  -2.9847102782864902e-05 -2.4895204343716943e-04 0.0000000000000000e+00  -3.1013319763161122e-05 -2.3322551433112719e-04 0.0000000000000000e+00  -3.2124735971063761e-05 -2.1732380897539783e-04 0.0000000000000000e+00  -3.2961985812253374e-05 -2.0056023978758317e-04 0.0000000000000000e+00  -3.3720637471605493e-05 -1.8342133788521440e-04 0.0000000000000000e+00  -3.4128297790914936e-05 -1.6594345213713063e-04 0.0000000000000000e+00  -3.4251562815042470e-05 -1.4824252538580339e-04 0.0000000000000000e+00  -3.4022421261731343e-05 -1.3047129557250203e-04 0.0000000000000000e+00  -3.3409385493632185e-05 -1.1282801026546132e-04 0.0000000000000000e+00  -3.2256366832938053e-05 -9.5355897023800695e-05 0.0000000000000000e+00  -3.0807019546253415e-05 -7.8646149884262112e-05 0.0000000000000000e+00  -2.8419683017663729e-05 -6.2474256840270933e-05 0.0000000000000000e+00  -2.5668367757793838e-05 -4.7973026942062144e-05 0.0000000000000000e+00  -2.1671464432570614e-05 -3.4777253199209682e-05 0.0000000000000000e+00  -1.7408831177024001e-05 -2.2914135557097517e-05 0.0000000000000000e+00  -1.2462303153409335e-05 -1.3537068888810754e-05 0.0000000000000000e+00  -6.6269825147736521e-06 -7.1993693369793198e-06 0.0000000000000000e+00  1.2750045819701556e-06 -3.9803645244063812e-04 0.0000000000000000e+00  -3.8607078108224032e-07 -3.9803631602835490e-04 0.0000000000000000e+00  7.0657603420048288e-07 -9.6065255090606640e-06 0.0000000000000000e+00  4.5016992020822467e-07 -4.0755710527532059e-04 0.0000000000000000e+00  4.5061310506303172e-07 -4.0332029298915549e-04 0.0000000000000000e+00  2.0820716781737641e-06 -5.6995039908142599e-05 0.0000000000000000e+00  4.7188002381545656e-07 -4.1234963811885030e-04 0.0000000000000000e+00  4.6810862925420626e-07 -4.0998528046309082e-04 0.0000000000000000e+00  -2.1533409663657246e-06 -1.1578016714767392e-04 0.0000000000000000e+00  5.2083436099022066e-07 -4.0089512827477092e-04 0.0000000000000000e+00  1.5005979765940735e-07 -1.7352042784968733e-04 0.0000000000000000e+00  2.8575123758045033e-06 -2.6175402236900015e-04 0.0000000000000000e+00  4.7466026218881803e-07 -4.1440733902740006e-04 0.0000000000000000e+00  4.3928511095271149e-07 -3.1074373019063212e-04 0.0000000000000000e+00  4.7658049043964131e-07 -4.1587688080975800e-04 0.0000000000000000e+00  5.2504323217311656e-07 -3.4400841735819713e-04 0.0000000000000000e+00  4.6669045181134655e-07 -3.7443326133665487e-04 0.0000000000000000e+00  4.5775582558207626e-07 -4.1636268497341993e-04 0.0000000000000000e+00  4.7967411101320338e-07 -4.1522407105370340e-04 0.0000000000000000e+00  5.9682839901384491e-07 -3.9092272417044679e-04 0.0000000000000000e+00  5.0101861875453180e-07 -4.0286437794937526e-04 0.0000000000000000e+00  4.8833886820052966e-07 -4.1180096655389864e-04 0.0000000000000000e+00  3.2831868428862823e-07 -2.0810144074599716e-04 0.0000000000000000e+00  4.4830397820426722e-07 -4.0497477324014466e-04 0.0000000000000000e+00  3.8529999615481976e-07 -4.0754698116193388e-04 0.0000000000000000e+00  8.9394132974673654e-07 -2.8929256626346604e-04 0.0000000000000000e+00  7.5411304500774612e-07 -3.6225539390771501e-04 0.0000000000000000e+00  1.5229106195780266e-07 -8.6022387670435518e-05 0.0000000000000000e+00  7.3617763646923944e-07 -3.9950976452647461e-04 0.0000000000000000e+00  3.2000334853383546e-06 -2.9768398945406313e-05 0.0000000000000000e+00  7.1825685915806605e-07 -4.1600726161826999e-04 0.0000000000000000e+00  2.9496543924303781e-07 -4.1526184438866684e-04 0.0000000000000000e+00  1.8468110302492216e-07 -4.1347575938145383e-04 0.0000000000000000e+00  -2.1404448215800623e-06 -3.8349149549230351e-04 0.0000000000000000e+00  4.6605083381395729e-07 -4.1626728194816241e-04 0.0000000000000000e+00  1.2046618812571817e-07 -4.1124721016651793e-04 0.0000000000000000e+00  1.0910486098669916e-06 -4.1388917360051989e-04 0.0000000000000000e+00  8.7049101423706642e-08 -4.0880670206714601e-04 0.0000000000000000e+00  -1.3659404929202150e-06 -3.9754398587477742e-04 0.0000000000000000e+00  -4.3591029862373293e-06 -3.2756102484912442e-04 0.0000000000000000e+00  -7.3508537880562708e-06 -1.4809512803806181e-04 0.0000000000000000e+00  8.2037555306027482e-07 -4.0214349420201182e-04 0.0000000000000000e+00  9.2566472928177360e-07 -4.0631873448143110e-04 0.0000000000000000e+00  9.3156629080115054e-06 -2.3435938407702275e-04 0.0000000000000000e+00  -1.8916959145126863e-07 -4.0666216154816890e-04 0.0000000000000000e+00  -1.1406853329997442e-05 -2.4079024177842002e-04 0.0000000000000000e+00  1.0811691006276498e-06 -4.0843885170937556e-04 0.0000000000000000e+00  1.0394922130565703e-06 -4.1089605723711186e-04 0.0000000000000000e+00  9.5017661206923170e-07 -4.1316679806180481e-04 0.0000000000000000e+00  -2.0075619357046402e-07 -4.0177794177879571e-04 0.0000000000000000e+00  1.3316892924006319e-05 -1.4011594650202461e-04 0.0000000000000000e+00  5.2167709130657980e-07 -4.1617412132733913e-04 0.0000000000000000e+00  7.8751777546089601e-07 -4.1503512385582313e-04 0.0000000000000000e+00  5.1815194920906209e-06 -3.8088666116314662e-04 0.0000000000000000e+00  8.9868204819909338e-06 -3.2267885761093785e-04 0.0000000000000000e+00  2.0274426829807239e-08 -4.1579224584716571e-04 0.0000000000000000e+00  -4.6544224237417283e-07 -4.1433022450778088e-04 0.0000000000000000e+00  3.8189200821940381e-06 -3.9573715629380804e-04 0.0000000000000000e+00  -2.5563442473519160e-06 -5.0770867466876934e-06 0.0000000000000000e+00  2.0516848702960043e-06 -4.1624853004383099e-06 0.0000000000000000e+00  2.1031089453617101e-06 -4.1035744435771114e-04 0.0000000000000000e+00  -6.2029007245308423e-06 -3.5094273097310532e-04 0.0000000000000000e+00  -1.0624677859290502e-05 -2.7219773562725747e-04 0.0000000000000000e+00  -1.1394847114052275e-05 -6.9808528055714613e-05 0.0000000000000000e+00  -1.2470565056801662e-05 -1.0425001991586849e-04 0.0000000000000000e+00  2.8196956783930424e-06 -4.0566577433573002e-04 0.0000000000000000e+00  -9.6132117836466459e-06 -2.9807543366938932e-04 0.0000000000000000e+00  -5.4650027967195424e-06 -3.6729324316071859e-04 0.0000000000000000e+00  -1.2505448595285719e-05 -1.9553516583185881e-04 0.0000000000000000e+00  -1.8573665434239685e-07 -4.0434226737381783e-04 0.0000000000000000e+00  1.1023283902188637e-06 -4.0429484568481951e-04 0.0000000000000000e+00  1.3185875635187332e-05 -1.9411683097152378e-04 0.0000000000000000e+00  -9.5123469621194658e-06 -3.8680540587253600e-05 0.0000000000000000e+00  -3.4068110377769391e-07 -4.0014396034446155e-04 0.0000000000000000e+00  -1.4116716240560917e-06 -4.1025620094679106e-04 0.0000000000000000e+00  -1.9433108005661770e-06 -4.0555075874202978e-04 0.0000000000000000e+00  1.3911300587877666e-05 -2.7101467102501976e-04 0.0000000000000000e+00  1.3845921036287909e-05 -6.8497418345075234e-05 0.0000000000000000e+00  1.5686305707149138e-05 -1.0483219213511167e-04 0.0000000000000000e+00  8.5806925359135331e-06 -3.5108805341911716e-04 0.0000000000000000e+00  1.3604216315239520e-05 -2.9717319710801044e-04 0.0000000000000000e+00  8.2854235093764883e-06 -3.6671179718764742e-04 0.0000000000000000e+00  -6.5378904206074057e-06 -2.2836243639366070e-05 0.0000000000000000e+00  -2.2697949545077270e-07 -3.9897829914134264e-04 0.0000000000000000e+00  1.1488400396802496e-06 -4.0941273235440721e-04 0.0000000000000000e+00  1.0879614460413518e-06 -4.1181288556762618e-04 0.0000000000000000e+00  1.4976192438392633e-05 -1.6114794323927899e-04 0.0000000000000000e+00  9.6436335472862990e-07 -4.1395220280240495e-04 0.0000000000000000e+00  -2.7979661512769896e-07 -4.0274779154326503e-04 0.0000000000000000e+00  7.4802139314686648e-07 -4.1557381521246006e-04 0.0000000000000000e+00  4.0229559571806890e-07 -4.1630605073614447e-04 0.0000000000000000e+00  9.4652052035864839e-06 -3.3502724408930416e-04 0.0000000000000000e+00  1.3731193771840791e-07 -4.1618361204114030e-04 0.0000000000000000e+00  5.2593622881212735e-06 -3.8732200484629269e-04 0.0000000000000000e+00  -8.1678827535383932e-07 -4.1295217899650350e-04 0.0000000000000000e+00  3.7735270524362328e-06 -4.0013615305166378e-04 0.0000000000000000e+00  1.1611205334376056e-06 -4.0027636439490973e-04 0.0000000000000000e+00  -2.9180810981872155e-07 -4.0569121565254586e-04 0.0000000000000000e+00  -1.3806338611029981e-05 -2.2223320313689799e-04 0.0000000000000000e+00  1.1701715786803954e-05 -4.1085442220812321e-05 0.0000000000000000e+00  6.6795573519405195e-06 -1.8976989002286204e-05 0.0000000000000000e+00  1.1905649739338830e-06 -4.1551050774994572e-04 0.0000000000000000e+00  -2.8048840408866128e-06 -4.0083944189699599e-04 0.0000000000000000e+00  5.9956355961074368e-07 -4.1631578522933820e-04 0.0000000000000000e+00  -1.9434206946728827e-07 -4.1199099713161154e-04 0.0000000000000000e+00  2.0604104264113880e-07 -4.1566905680018670e-04 0.0000000000000000e+00  -4.5377988276253993e-08 -4.1410094111475474e-04 0.0000000000000000e+00  -3.5147209449149109e-06 -3.8875781433064718e-04 0.0000000000000000e+00  1.9207497505013219e-06 -4.1267273245777482e-04 0.0000000000000000e+00  -8.4096847929524581e-06 -3.3717307911609586e-04 0.0000000000000000e+00  -5.5695019955340589e-06 -3.7765782541189649e-04 0.0000000000000000e+00  -3.1323286847479652e-07 -4.0799976069506351e-04 0.0000000000000000e+00  -1.0300395078223510e-05 -3.1674236608967860e-04 0.0000000000000000e+00  -1.6097017045081912e-07 -4.0963690085085003e-04 0.0000000000000000e+00  -1.4816438401734994e-05 -1.6477957500281407e-04 0.0000000000000000e+00  -1.5454745346439233e-05 -1.3073701901284188e-04 0.0000000000000000e+00  1.1870222992132822e-06 -4.0141219134232114e-04 0.0000000000000000e+00  1.2223383750088442e-06 -4.0294220110444082e-04 0.0000000000000000e+00  -2.3893158224740064e-08 -4.1273185112837915e-04 0.0000000000000000e+00  1.1546077345025152e-07 -4.1470434260581666e-04 0.0000000000000000e+00  7.0329580082379059e-07 -4.1625516307510044e-04 0.0000000000000000e+00  -1.3671661573267482e-07 -4.1043292591569738e-04 0.0000000000000000e+00  3.4296918311945818e-07 -4.1602602802014854e-04 0.0000000000000000e+00  1.2503020772668375e-06 -4.1481935237292530e-04 0.0000000000000000e+00  -3.0539313111985427e-06 -3.9335183878784648e-04 0.0000000000000000e+00  1.5446826333844735e-05 -2.1881423928822902e-04 0.0000000000000000e+00  1.2318766304329875e-06 -4.0552178592255007e-04 0.0000000000000000e+00  1.2034023201130608e-06 -4.0711108450032854e-04 0.0000000000000000e+00  1.4265219586723157e-05 -2.4920205323343618e-04 0.0000000000000000e+00  -2.1572831272425148e-07 -4.1521606120296830e-04 0.00000