<?xml version="1.0"?>
<VTKFile type="UnstructuredGrid"  version="0.1"  >
<UnstructuredGrid>
<Piece  NumberOfPoints="439" NumberOfCells="725">
<Points>
<DataArray  type="Float64"  NumberOfComponents="3"  format="ascii">0.5907519164477174 0.119968827180465 0  0.5960136457902362 0.1397396398820895 0  0.2489897949 0.21 0  0.2489897949 0.19 0  0.5933815113582872 0.129854199750937 0  0.2496355385699469 0.2060260530378829 0  0.249959460510575 0.2020130349814059 0  0.2499594605105767 0.1979869650186357 0  0.24963553856995 0.1939739469621422 0  0.2540406373350791 0.2099007781915058 0  0.259098084805588 0.2097849835855851 0  0.2641502493361542 0.2096357323162249 0  0.2691887926176614 0.2093997017169854 0  0.274214987047422 0.2091201263528621 0  0.2792382186836814 0.2087783800712223 0  0.2842466481104609 0.2084092093091425 0  0.2892404880205564 0.2079891447115839 0  0.2942308660639291 0.2075318258581672 0  0.2992128268434006 0.207038804210226 0  0.3041969463430392 0.2065005105711154 0  0.3091789488920171 0.2059572137211086 0  0.3141507296562425 0.205361773820312 0  0.3191334472060122 0.2047411338331436 0  0.3241036942880149 0.2040939825993627 0  0.3290791596340552 0.2034068172108106 0  0.3340531678042371 0.2026958652368802 0  0.3390272406091454 0.201942759571474 0  0.3439966281801071 0.2011688080557341 0  0.3489673720246638 0.20035454325178 0  0.3539354339266686 0.1995093712959068 0  0.3588989512781377 0.1986306326139043 0  0.3638671180150148 0.1976938090398691 0  0.3688370158278291 0.1967459350721976 0  0.3737964311781697 0.1957430021594358 0  0.3787458683166608 0.1947155470327405 0  0.3836870305974529 0.1936460781004149 0  0.3886154454828592 0.1925474706382574 0  0.3935273685158213 0.1914237757292838 0  0.3984231732411913 0.1902613420194051 0  0.4033135105553528 0.1890944271198372 0  0.4081756757328735 0.1879027686533529 0  0.4130239604695566 0.1866944849038911 0  0.4178675543871631 0.1854837279719795 0  0.422692041615736 0.1842624229871468 0  0.4275128242912797 0.1830374864609897 0  0.4323230604953526 0.1818142745120771 0  0.4371268338393179 0.1805918741121509 0  0.4419244654140161 0.1793734672596841 0  0.4467153092065112 0.1781618972551002 0  0.4514993867531045 0.1769555390848452 0  0.4562784086284796 0.1757559815411828 0  0.4610505780942229 0.1745615639197704 0  0.4658194775639964 0.1733701907456627 0  0.4705855403568777 0.1721836174628676 0  0.4753489245244208 0.1709955446729845 0  0.4801136881280288 0.1698081272377597 0  0.484879667119546 0.1686215549409906 0  0.4896506344067965 0.1674286026451252 0  0.4944268448613492 0.1662326809167694 0  0.4992083046139156 0.1650339856214328 0  0.5039968818838537 0.1638286775582233 0  0.5087927364097854 0.1626174492152407 0  0.5135953840520306 0.1614005135300247 0  0.5184009561698761 0.1601766730605834 0  0.5232132566026424 0.1589446801344799 0  0.5280306285408669 0.1577062791339762 0  0.532852692678657 0.1564603797372439 0  0.5376739995350687 0.1552116862851494 0  0.5424975475691933 0.1539504057274144 0  0.5473320041751729 0.1526767689882432 0  0.5521706598745462 0.151408768247319 0  0.557011129206192 0.1501292815623511 0  0.5618667250880398 0.1488495941543307 0  0.5667257113810006 0.1475629933220118 0  0.5715965371601035 0.1462661024761498 0  0.5764714188352107 0.1449700444747297 0  0.5813514243163147 0.1436642796564868 0  0.5862385688692235 0.1423566495686575 0  0.5911247974652802 0.1410478352613361 0  0.5858687876193667 0.1212665415782621 0  0.5809891300812436 0.1225649328228264 0  0.5761114813404327 0.123865434460652 0  0.5712311763822114 0.1251668087487203 0  0.56635471439324 0.126466927271955 0  0.5614781293538128 0.1277738024806439 0  0.5566075689886526 0.1290796331558177 0  0.5517463949877354 0.1303862296046555 0  0.5468924348870019 0.1316969948444524 0  0.542053035580799 0.133000931286883 0  0.537224570993782 0.1343085562268609 0  0.5324064185735029 0.1356035172350072 0  0.5276078704852376 0.136886135491698 0  0.5228175734965568 0.1381760658108598 0  0.5180335009394308 0.1394470929171755 0  0.5132651406529622 0.1407047665888251 0  0.508503060998691 0.1419655452706259 0  0.5037427273749219 0.1432057266363512 0  0.498992703812875 0.1444367166446773 0  0.4942445173493447 0.1456667988823962 0  0.4894966923241539 0.1468776882145076 0  0.4847536256664234 0.1480844249940004 0  0.4800064111832799 0.1492868511462908 0  0.4752594480658863 0.1504750917223511 0  0.470510523290833 0.1516648518603798 0  0.4657525996650588 0.1528510384473925 0  0.4609942960939589 0.1540302669053358 0  0.4562262704534742 0.1552173345075363 0  0.4514520875427173 0.1564009175959818 0  0.4466732128916819 0.1575910936903395 0  0.4418870636104058 0.1587886204561953 0  0.4370949555419165 0.1599875147358314 0  0.4323003667715534 0.1611933539962425 0  0.4275028617319269 0.1624036422338324 0  0.4227052512760877 0.1636132678895784 0  0.4179035049247761 0.1648193620069484 0  0.413105285185239 0.1660191176295357 0  0.4083025963245311 0.167210647930137 0  0.4034997315340279 0.1683870629269633 0  0.3986969593495801 0.1695442873502481 0  0.3938904420849613 0.1706792968712966 0  0.3890772547061581 0.1717990672589982 0  0.3842587744444791 0.1728907812116305 0  0.3794499062412929 0.1739582424421054 0  0.3746284718972926 0.1749924937311782 0  0.3698144481857551 0.1759900077203043 0  0.3649885620990715 0.1769602324888643 0  0.360162962007105 0.1778865240860795 0  0.3553278585825079 0.1787879409587106 0  0.3504867484793553 0.1796503104489631 0  0.3456560623261121 0.1804861312333367 0  0.3408090309808485 0.1812873229287818 0  0.3359707219798999 0.1820526684030449 0  0.3311184654423512 0.1827922245615085 0  0.3262694395336878 0.1834901775263998 0  0.3214233664829747 0.1841791841561866 0  0.3165718775775001 0.1848244253321171 0  0.3117344339723172 0.1854433307055927 0  0.3068859463302119 0.1860336428459312 0  0.302043978836359 0.1865839898883216 0  0.2972012725939538 0.1871108198029178 0  0.2923612504057848 0.1875954546362984 0  0.2875373619335125 0.1880504636571932 0  0.2827008163768274 0.1884614521587324 0  0.277884477388531 0.1888304485423026 0  0.2730580030848783 0.1891420584283256 0  0.268250181406104 0.1894049338660705 0  0.2634337572956376 0.1896286031527807 0  0.2586163748614929 0.1897893979379107 0  0.253801913021539 0.1898808030079102 0  0.592065964260286 0.1249116852917717 0  0.5946962823173011 0.1347953506016425 0  0.2589741221462952 0.2004305849878701 0  0.5374652388852702 0.1448266175548495 0  0.5620393490528812 0.1382343820040794 0  0.2774144726505768 0.1997518910723805 0  0.5089905028318624 0.1521454580526046 0  0.5233665983362705 0.1484316230196338 0  0.2942572811933743 0.196814674035521 0  0.576254449318633 0.1339598248020613 0  0.3101147305105412 0.1957624078542915 0  0.3366467484017787 0.1930181272776189 0  0.494661930349824 0.1557859544676444 0  0.3546709057556575 0.1891896121686771 0  0.4803744406769559 0.15936701667071 0  0.3699836550013796 0.1863061462246428 0  0.3888852741697651 0.1821967806487191 0  0.4656561423914653 0.1626534425848596 0  0.4514650869191478 0.1666598219491842 0  0.4030982116927865 0.178934808323248 0  0.4178969763327285 0.1751496084361436 0  0.436496592914792 0.170412238937008 0  0.319887147422013 0.194574065214592 0  0.5523848748860536 0.1408479852779094 0  0.4261399959313866 0.1729019010820043 0  0.3462428129687599 0.1907962279106737 0  0.3805225025171263 0.1842271108373902 0  0.2859339869051576 0.1983191690643964 0  0.5841496414669108 0.1304641735837458 0  0.2680175566361587 0.2011929446481124 0  0.4591694865366559 0.167054216993476 0  0.4877394590404979 0.159942353550646 0  0.5020558326206852 0.1563377455706763 0  0.395661230740614 0.1782932347295687 0  0.4734581480324963 0.1635023028521273 0  0.5164211947286497 0.1526711903447987 0  0.4448368062362161 0.1706409214148906 0  0.5308324382036471 0.1489312289193744 0  0.4101430939918487 0.1747661833043389 0  0.3616033660329071 0.1856111268857082 0  0.3028834874608337 0.1943488373499686 0  0.5683923739877342 0.134172803934852 0  0.5438469436643939 0.1401019496348219 0  0.3281780008917312 0.1963368962207649 0  0.5436240667286383 0.1472252622847083 0  0.329254098359079 0.1893605389298973 0  0.5313541494472587 0.1423718484811312 0  0.5169664098183545 0.1461573243618041 0  0.5026347587264771 0.1498582326986857 0  0.5721521721673255 0.1396486032704743 0  0.3013572659118833 0.2006862424633251 0  0.4740796674806124 0.1570509057189765 0  0.4883454839301454 0.1534834267209712 0  0.3948902071321292 0.1848001122458082 0  0.3605590472555601 0.1920810857079028 0  0.4555746113752315 0.1616497633756085 0  0.4454763284943777 0.1641713788155495 0  0.4094444757707015 0.1812717422234155 0  0.2557273499079599 0.1960268683197816 0  0.2550477409540319 0.2033990932815946 0  0.4336276824715189 0.1750510545222005 0  0.3730731386735318 0.1817685736117785 0  0.3395032979142559 0.1876959260163863 0  0.2809093002722585 0.1947195674328089 0  0.2907582862353924 0.1939124736767209 0  0.4238212276289497 0.1777311415608439 0  0.3489266759097968 0.1861481204659569 0  0.3829958842740885 0.1794475481931008 0  0.3158146084147191 0.1911965139417423 0  0.5570595926345954 0.1435928580206412 0  0.5553129057030486 0.1359105684917344 0  0.3163853784006792 0.1989233223471057 0  0.2708169769481949 0.1953113805624344 0  0.5820754472388571 0.137883284515604 0  0.4314938496948284 0.1670202441077758 0  0.4215561643161303 0.1699617973834715 0  0.3405040670926314 0.1964472298911208 0  0.2811030440375609 0.2034567587402029 0  0.291668771577889 0.2025667690587793 0  0.3748833584482993 0.18993517078389 0  0.3502215518546998 0.1952434982685892 0  0.3847076447787018 0.1884699983233724 0  0.2646425432592586 0.1958522547566038 0  0.5888342444489206 0.1353488415942597 0  0.5255683562358919 0.1433936126600681 0  0.5112069904742991 0.1471488861811946 0  0.3072083343851076 0.2005088239083689 0  0.4968978006199152 0.1508221118686425 0  0.5665517068541588 0.1416495539798599 0  0.4826243629559851 0.1544239418491909 0  0.4684011904261464 0.1579647767379571 0  0.3664445348468751 0.1914641564823669
[...]
<PointData  Vectors="d"> 
<DataArray  type="Float64"  Name="d"  NumberOfComponents="3" format="ascii">-9.2480835522823820e-03 -7.0031172819534998e-02 0.0000000000000000e+00  -3.9863542097638297e-03 -7.0260360117910495e-02 0.0000000000000000e+00  0.0000000000000000e+00 0.0000000000000000e+00 0.0000000000000000e+00  0.0000000000000000e+00 0.0000000000000000e+00 0.0000000000000000e+00  -6.6184886417129706e-03 -7.0145800249063153e-02 0.0000000000000000e+00  0.0000000000000000e+00 0.0000000000000000e+00 0.0000000000000000e+00  0.0000000000000000e+00 0.0000000000000000e+00 0.0000000000000000e+00  0.0000000000000000e+00 0.0000000000000000e+00 0.0000000000000000e+00  0.0000000000000000e+00 0.0000000000000000e+00 0.0000000000000000e+00  1.0703672945009799e-04 -9.9221808494123081e-05 0.0000000000000000e+00  2.2067849433380385e-04 -2.1501641441485034e-04 0.0000000000000000e+00  3.2903731926208770e-04 -3.6426768377498611e-04 0.0000000000000000e+00  4.2377489513147477e-04 -6.0029828301458017e-04 0.0000000000000000e+00  5.0616361926491518e-04 -8.7987364713792418e-04 0.0000000000000000e+00  5.8558954990593412e-04 -1.2216199287776390e-03 0.0000000000000000e+00  6.5021327106712823e-04 -1.5907906908574200e-03 0.0000000000000000e+00  7.0024747553981551e-04 -2.0108552884160855e-03 0.0000000000000000e+00  7.4681981327689171e-04 -2.4681741418328077e-03 0.0000000000000000e+00  7.8497488712978610e-04 -2.9611957897740823e-03 0.0000000000000000e+00  8.2528868113954156e-04 -3.4994894288846922e-03 0.0000000000000000e+00  8.6348552449913335e-04 -4.0427862788913601e-03 0.0000000000000000e+00  8.9146058310585489e-04 -4.6382261796881165e-03 0.0000000000000000e+00  9.3037242725728473e-04 -5.2588661668563430e-03 0.0000000000000000e+00  9.5681380364169490e-04 -5.9060174006372217e-03 0.0000000000000000e+00  9.8847344406357727e-04 -6.5931827891894017e-03 0.0000000000000000e+00  1.0186759086162232e-03 -7.3041347631197804e-03 0.0000000000000000e+00  1.0489430079169064e-03 -8.0572404285260014e-03 0.0000000000000000e+00  1.0745248732494704e-03 -8.8311919442657354e-03 0.0000000000000000e+00  1.1014630121878874e-03 -9.6454567482200087e-03 0.0000000000000000e+00  1.1257192085741127e-03 -1.0490628704093166e-02 0.0000000000000000e+00  1.1454308544252274e-03 -1.1369367386095737e-02 0.0000000000000000e+00  1.1697918856837730e-03 -1.2306190960130808e-02 0.0000000000000000e+00  1.1958839928794417e-03 -1.3254064927802312e-02 0.0000000000000000e+00  1.2114936375909799e-03 -1.4256997840564119e-02 0.0000000000000000e+00  1.2171250704731899e-03 -1.5284452967259525e-02 0.0000000000000000e+00  1.2144816456408011e-03 -1.6353921899585191e-02 0.0000000000000000e+00  1.1990908254253683e-03 -1.7452529361742526e-02 0.0000000000000000e+00  1.1672081527580966e-03 -1.8576224270716313e-02 0.0000000000000000e+00  1.1192071725208328e-03 -1.9738657980594949e-02 0.0000000000000000e+00  1.0657387810544035e-03 -2.0905572880162961e-02 0.0000000000000000e+00  9.8409825296260885e-04 -2.2097231346647039e-02 0.0000000000000000e+00  8.8857728402567341e-04 -2.3305515096108970e-02 0.0000000000000000e+00  7.8836549601133581e-04 -2.4516272028020581e-02 0.0000000000000000e+00  6.6904701897251299e-04 -2.5737577012853247e-02 0.0000000000000000e+00  5.4602398888779747e-04 -2.6962513539010274e-02 0.0000000000000000e+00  4.1245448732764897e-04 -2.8185725487922909e-02 0.0000000000000000e+00  2.7242212564061881e-04 -2.9408125887849114e-02 0.0000000000000000e+00  1.2624799468327722e-04 -3.0626532740315789e-02 0.0000000000000000e+00  -2.6713918485508299e-05 -3.1838102744899607e-02 0.0000000000000000e+00  -1.8644207754009049e-04 -3.3044460915154741e-02 0.0000000000000000e+00  -3.5122590780688802e-04 -3.4244018458817319e-02 0.0000000000000000e+00  -5.2286214769316165e-04 -3.5438436080229577e-02 0.0000000000000000e+00  -6.9776838357021658e-04 -3.6629809254337287e-02 0.0000000000000000e+00  -8.7551129632213137e-04 -3.7816382537132293e-02 0.0000000000000000e+00  -1.0559328344460009e-03 -3.9004455327015401e-02 0.0000000000000000e+00  -1.2349749364845202e-03 -4.0191872762240330e-02 0.0000000000000000e+00  -1.4128016506301962e-03 -4.1378445059009415e-02 0.0000000000000000e+00  -1.5856400690099769e-03 -4.2571397354874821e-02 0.0000000000000000e+00  -1.7532353201118523e-03 -4.3767319083230560e-02 0.0000000000000000e+00  -1.9155812731737286e-03 -4.4966014378567162e-02 0.0000000000000000e+00  -2.0708097088952687e-03 -4.6171322441776678e-02 0.0000000000000000e+00  -2.2187608886020931e-03 -4.7382550784759218e-02 0.0000000000000000e+00  -2.3599189519735828e-03 -4.8599486469975396e-02 0.0000000000000000e+00  -2.4981525397654403e-03 -4.9823326939416684e-02 0.0000000000000000e+00  -2.6296578126582151e-03 -5.1055319865519914e-02 0.0000000000000000e+00  -2.7560915800725521e-03 -5.2293720866023796e-02 0.0000000000000000e+00  -2.8778331479417259e-03 -5.3539620262756098e-02 0.0000000000000000e+00  -3.0003319971681247e-03 -5.4788313714850628e-02 0.0000000000000000e+00  -3.1205896686598593e-03 -5.6049594272585483e-02 0.0000000000000000e+00  -3.2299387683178801e-03 -5.7323231011756882e-02 0.0000000000000000e+00  -3.3350887745993737e-03 -5.8591231752680877e-02 0.0000000000000000e+00  -3.4384251485965870e-03 -5.9870718437649045e-02 0.0000000000000000e+00  -3.5266349724085554e-03 -6.1150405845669310e-02 0.0000000000000000e+00  -3.6114543851108747e-03 -6.2437006677988120e-02 0.0000000000000000e+00  -3.6844343116424392e-03 -6.3733897523850294e-02 0.0000000000000000e+00  -3.7533583421729888e-03 -6.5029955525270300e-02 0.0000000000000000e+00  -3.8171585667194220e-03 -6.6335720343513191e-02 0.0000000000000000e+00  -3.8738197194571541e-03 -6.7643350431342508e-02 0.0000000000000000e+00  -3.9313968290603353e-03 -6.8952164738663932e-02 0.0000000000000000e+00  -9.1874066750165899e-03 -6.8733458421737809e-02 0.0000000000000000e+00  -9.1232585075144163e-03 -6.7435067177173583e-02 0.0000000000000000e+00  -9.0571015426867251e-03 -6.6134565539347975e-02 0.0000000000000000e+00  -8.9936007952613039e-03 -6.4833191251279607e-02 0.0000000000000000e+00  -8.9262570786114558e-03 -6.3533072728044981e-02 0.0000000000000000e+00  -8.8590364124187561e-03 -6.2226197519356125e-02 0.0000000000000000e+00  -8.7857910719657262e-03 -6.0920366844182297e-02 0.0000000000000000e+00  -8.7031593672533478e-03 -5.9613770395344524e-02 0.0000000000000000e+00  -8.6133137623558061e-03 -5.8303005155547628e-02 0.0000000000000000e+00  -8.5089073629048637e-03 -5.6999068713117017e-02 0.0000000000000000e+00  -8.3935662443224198e-03 -5.5691443773138956e-02 0.0000000000000000e+00  -8.2679129590017969e-03 -5.4396482764992829e-02 0.0000000000000000e+00  -8.1226553416584614e-03 -5.3113864508301994e-02 0.0000000000000000e+00  -7.9691466247061894e-03 -5.1823934189140150e-02 0.0000000000000000e+00  -7.8094134762319621e-03 -5.0552907082824464e-02 0.0000000000000000e+00  -7.6339680570621255e-03 -4.9295233411174796e-02 0.0000000000000000e+00  -7.4522420057309179e-03 -4.8034454729374086e-02 0.0000000000000000e+00  -7.2687699239006717e-03 -4.6794273363648727e-02 0.0000000000000000e+00  -7.0749877803422513e-03 -4.5563283355322726e-02 0.0000000000000000e+00  -6.8793685382357635e-03 -4.4333201117603749e-02 0.0000000000000000e+00  -6.6833878578180517e-03 -4.3122311785492334e-02 0.0000000000000000e+00  -6.4826488099296664e-03 -4.1915575005999614e-02 0.0000000000000000e+00  -6.2860575874544985e-03 -4.0713148853709136e-02 0.0000000000000000e+00  -6.0892149992182766e-03 -3.9524908277648887e-02 0.0000000000000000e+00  -5.8943340686635490e-03 -3.8335148139620169e-02 0.0000000000000000e+00  -5.7084519888095592e-03 -3.7148961552607572e-02 0.0000000000000000e+00  -5.5229498542965676e-03 -3.5969733094664197e-02 0.0000000000000000e+00  -5.3471697891608405e-03 -3.4782665492463546e-02 0.0000000000000000e+00  -5.1775469942929066e-03 -3.3599082404018224e-02 0.0000000000000000e+00  -5.0126159396990571e-03 -3.2408906309660430e-02 0.0000000000000000e+00  -4.8549595153658870e-03 -3.1211379543804693e-02 0.0000000000000000e+00  -4.7032618782301087e-03 -3.0012485264168623e-02 0.0000000000000000e+00  -4.5540449429763586e-03 -2.8806646003757434e-02 0.0000000000000000e+00  -4.4077442769861240e-03 -2.7596357766167621e-02 0.0000000000000000e+00  -4.2615490271987874e-03 -2.6386732110421529e-02 0.0000000000000000e+00  -4.1194896728721847e-03 -2.5180637993051515e-02 0.0000000000000000e+00  -3.9739037067666955e-03 -2.3980882370464255e-02 0.0000000000000000e+00  -3.8327868618281526e-03 -2.2789352069863079e-02 0.0000000000000000e+00  -3.6918459466718529e-03 -2.1612937073036659e-02 0.0000000000000000e+00  -3.5508124254676411e-03 -2.0455712649751979e-02 0.0000000000000000e+00  -3.4135239844289059e-03 -1.9320703128703508e-02 0.0000000000000000e+00  -3.2829056575966135e-03 -1.8200932741001673e-02 0.0000000000000000e+00  -3.1575802136291093e-03 -1.7109218788369619e-02 0.0000000000000000e+00  -3.0226427111891118e-03 -1.6041757557894627e-02 0.0000000000000000e+00  -2.9002713495332754e-03 -1.5007506268821812e-02 0.0000000000000000e+00  -2.7704893554221506e-03 -1.4009992279695576e-02 0.0000000000000000e+00  -2.6525697364369904e-03 -1.3039767511135609e-02 0.0000000000000000e+00  -2.5343641227565522e-03 -1.2113475913920441e-02 0.0000000000000000e+00  -2.4256618417029968e-03 -1.1212059041289324e-02 0.0000000000000000e+00  -2.3229662392337718e-03 -1.0349689551036973e-02 0.0000000000000000e+00  -2.2098466868188719e-03 -9.5138687666633543e-03 0.0000000000000000e+00  -2.1130723264433408e-03 -8.7126770712181913e-03 0.0000000000000000e+00  -2.0075756217537420e-03 -7.9473315969551487e-03 0.0000000000000000e+00  -1.9160264536638406e-03 -7.2077754384914094e-03 0.0000000000000000e+00  -1.8212466566869501e-03 -6.5098224736002408e-03 0.0000000000000000e+00  -1.7235140017423892e-03 -5.8208158438133404e-03 0.0000000000000000e+00  -1.6311972015588508e-03 -5.1755746678828303e-03 0.0000000000000000e+00  -1.5248351010838728e-03 -4.5566692944073251e-03 0.0000000000000000e+00  -1.4295170375462933e-03 -3.9663571540688274e-03 0.0000000000000000e+00  -1.3276788257606869e-03 -3.4160101116783828e-03 0.0000000000000000e+00  -1.2265793625274956e-03 -2.8891801970822358e-03 0.0000000000000000e+00  -1.1227958450581530e-03 -2.4045453637015469e-03 0.0000000000000000e+00  -1.0028786116749642e-03 -1.9495363428067910e-03 0.0000000000000000e+00  -8.9561846270220190e-04 -1.5385478412675915e-03 0.0000000000000000e+00  -7.6815174534063883e-04 -1.1695514576974772e-03 0.0000000000000000e+00  -6.5082034334600775e-04 -8.5794157167435312e-04 0.0000000000000000e+00  -5.1483631648212248e-04 -5.9506613392964970e-04 0.0000000000000000e+00  -3.8745472131002746e-04 -3.7139684721928298e-04 0.0000000000000000e+00  -2.6103144981632953e-04 -2.1060206208934316e-04 0.0000000000000000e+00  -1.3168758411896274e-04 -1.1919699208990422e-04 0.0000000000000000e+00  -7.9340357397137771e-03 -7.0088314708206562e-02 0.0000000000000000e+00  -5.3037176826992126e-03 -7.0204649398330335e-02 0.0000000000000000e+00  6.9561464593307565e-07 -1.2180435497030847e-04 0.0000000000000000e+00  -5.6809955000370642e-03 -5.5173382445119525e-02 0.0000000000000000e+00  -6.2004404239348679e-03 -6.1736076576819225e-02 0.0000000000000000e+00  -3.6920061225543575e-05 -1.0423008698122039e-03 0.0000000000000000e+00  -4.8590805450344811e-03 -4.7756884596487283e-02 0.0000000000000000e+00  -5.3144021574674750e-03 -5.1470719629463008e-02 0.0000000000000000e+00  -2.5361401239024393e-04 -2.4765168050176678e-03 0.0000000000000000e+00  -6.5236338198594677e-03 -6.5583155298273674e-02 0.0000000000000000e+00  -2.9810914638425689e-04 -4.2080507266063338e-03 0.0000000000000000e+00  -3.5342714007632485e-04 -7.8113339657778181e-03 0.0000000000000000e+00  -4.3562359102220184e-03 -4.4116388181445823e-02 0.0000000000000000e+00  -6.1071181524701606e-04 -1.0810387831383845e-02 0.0000000000000000e+00  -3.8123084662366933e-03 -4.0535325978374961e-02 0.0000000000000000e+00  -7.5371638917555417e-04 -1.3708091470726101e-02 0.0000000000000000e+00  -1.0029833404843931e-03 -1.7803219351363819e-02 0.0000000000000000e+00  -3.3296126578081626e-03 -3.6888229840809687e-02 0.0000000000000000e+00  -2.6926447650486738e-03 -3.3340178050725464e-02 0.0000000000000000e+00  -1.2552797090466025e-03 -2.1162849027676459e-02 0.0000000000000000e+00  -1.6541154112281603e-03 -2.4850391563962133e-02 0.0000000000000000e+00  -2.2053849496591628e-03 -2.9573523367669143e-02 0.0000000000000000e+00  -3.6012760365719201e-04 -5.4348190000478875e-03 0.0000000000000000e+00  -6.0204792220315811e-03 -5.9143130507448245e-02 0.0000000000000000e+00  -1.9267187573270362e-03 -2.6947003738819725e-02 0.0000000000000000e+00  -5.2318165778744740e-04 -9.3548672687637120e-03 0.0000000000000000e+00  -8.5013204876437933e-04 -1.5923984342061749e-02 0.0000000000000000e+00  -1.3435078705212715e-04 -1.7223755062217693e-03 0.0000000000000000e+00  -6.9727397112087901e-03 -6.7780742351128562e-02 0.0000000000000000e+00  2.8240490296008306e-05 -4.8218099861668860e-04 0.0000000000000000e+00  -2.4039537059720273e-03 -3.5196146335324384e-02 0.0000000000000000e+00  -3.4968154358474501e-03 -4.2308009778163153e-02 0.0000000000000000e+00  -4.0118589725129019e-03 -4.5912617758135522e-02 0.0000000000000000e+00  -1.6427353280636285e-03 -1.9456401941627840e-02 0.0000000000000000e+00  -2.9467093269932576e-03 -3.8748060476677712e-02 0.0000000000000000e+00  -4.4779139813959793e-03 -4.9579172984019877e-02 0.0000000000000000e+00  -1.9052168895495815e-03 -3.1609441913909346e-02 0.0000000000000000e+00  -4.8980876232374146e-03 -5.3319134409445391e-02 0.0000000000000000e+00  -1.9922891936828609e-03 -2.2983453366858874e-02 0.0000000000000000e+00  -1.0939600964282477e-03 -1.2138509785483689e-02 0.0000000000000000e+00  -4.8817020106236983e-04 -3.4007993212183045e-03 0.0000000000000000e+00  -6.8885974840885650e-03 -6.3576832736298411e-02 0.0000000000000000e+00  -6.6129122546621424e-03 -5.7026528838944816e-02 0.0000000000000000e+00  -1.4772322953120706e-05 -6.5346253054757034e-03 0.0000000000000000e+00  -4.7938353211076949e-03 -5.6615059284768079e-02 0.0000000000000000e+00  -9.8062872491987293e-04 -6.7991395006517666e-03 0.0000000000000000e+00  -6.5669357765529290e-03 -5.3753333183279829e-02 0.0000000000000000e+00  -6.1232582886106782e-03 -4.9967857302601601e-02 0.0000000000000000e+00  -5.6234922636449461e-03 -4.6266948965724058e-02 0.0000000000000000e+00  -5.3193587013835144e-03 -6.4226215065114362e-02 0.0000000000000000e+00  1.7616764692865054e-04 -3.1885758722686301e-03 0.0000000000000000e+00  -4.5157492757987470e-03 -3.9074275945427478e-02 0.0000000000000000e+00  -5.0813499431216829e-03 -4.2641754943435070e-02 0.0000000000000000e+00  -2.2319953963378984e-04 -1.9074706089788420e-02 0.0000000000000000e+00  5.2280523148331798e-05 -1.1793732627692188e-02 0.0000000000000000e+00  -3.8082694704829681e-03 -3.4475418288790756e-02 0.0000000000000000e+00  -3.4562540283026070e-03 -3.1953802848851132e-02 0.0000000000000000e+00  -5.0034801792048038e-04 -2.2603076112183502e-02 0.0000000000000000e+00  -5.8950072237164807e-05 -5.8968705947933108e-05 0.0000000000000000e+00  3.3004923092065850e-05 -4.3549717516905611e-05 0.0000000000000000e+00  -1.1754651749500810e-03 -2.8722703241954892e-02 0.0000000000000000e+00  -1.5630629348781407e-03 -1.4457668624076860e-02 0.0000000000000000e+00  -1.1225386721747165e-03 -8.3508661776026567e-03 0.0000000000000000e+00  -3.9086784672480088e-04 -1.3272247612411490e-03 0.0000000000000000e+00  -5.1035250859672587e-04 -2.1691591882073576e-03 0.0000000000000000e+00  -8.4930595303954579e-04 -2.6222066245110476e-02 0.0000000000000000e+00  -1.2354998231160737e-03 -9.8986717282308762e-03 0.0000000000000000e+00  -1.7729313981808337e-03 -1.6599244001135188e-02 0.0000000000000000e+00  -8.1776012363700683e-04 -4.9629446216276768e-03 0.0000000000000000e+00  -5.0954084707458634e-03 -6.0188791239257827e-02 0.0000000000000000e+00  -7.1284819989283219e-03 -6.0165623869403308e-02 0.0000000000000000e+00  1.4587481736645752e-04 -4.9446333953633752e-03 0.0000000000000000e+00  -2.7173647256727683e-04 -6.5826377014937328e-04 0.0000000000000000e+00  -5.2259904015035811e-03 -6.6839503587478269e-02 0.0000000000000000e+00  -3.1741069494426026e-03 -2.8444901847475560e-02 0.0000000000000000e+00  -2.7734860916684232e-03 -2.5913900710434666e-02 0.0000000000000000e+00  2.4811600927905929e-04 -8.3468201379714568e-03 0.0000000000000000e+00  2.3455136146750764e-04 -1.3174830410627890e-03 0.0000000000000000e+00  2.6106826401675327e-04 -2.2141826483161953e-03 0.0000000000000000e+00  1.1196583780591188e-04 -1.4599683260965333e-02 0.0000000000000000e+00  2.9990296481315965e-04 -9.9318430500413574e-03 0.0000000000000000e+00  1.7935594947218994e-04 -1.6705342995263536e-02 0.0000000000000000e+00  -1.7194328624684145e-04 -3.5671954203364114e-04 0.0000000000000000e+00  -5.4905199173686699e-03 -6.8692700764658457e-02 0.0000000000000000e+00  -6.5289048097224222e-03 -5.2250897245019100e-02 0.0000000000000000e+00  -6.0588534544734644e-03 -4.8495623723890727e-02 0.0000000000000000e+00  2.1600882484194541e-04 -3.8379794788862163e-03 0.0000000000000000e+00  -5.5366261920111052e-03 -4.4822398036443840e-02 0.0000000000000000e+00  -5.1085967192761950e-03 -6.2697249407416292e-02 0.0000000000000000e+00  -4.9786467390890553e-03 -4.1220568055892283e-02 0.0000000000000000e+00  -4.4140071034798412e-03 -3.7675470153032214e-02 0.0000000000000000e+00  1.1435719412141391e-04 -1.2903298381493117e-02 0.0000000000000000e+00  -4.1300972591407966e-03 -3.5845356771561240e-02 0.0000000000000000e+00  -2.1173481050861781e-04 -2.0448924116750550e-02 0.0000000000000000e+00  -3.3904768222674923e-03 -3.0518379990518204e-02 0.0000000000000000e+00  -5.2421931791325370e-04 -2.4034995203822612e-02 0.0000000000000000e+00  -7.5818781191111196e-03 -6.6533613456363855e-02 0.0000000000000000e+00  -4.7656616558543960e-03 -5.8114230579874519e-02 0.0000000000000000e+00  -9.9360419742700067e-04 -5.9938517615315294e-03 0.0000000000000000e+00  2.0241750344373455e-04 -7.1346637657667452e-04 0.0000000000000000e+00  1.1214673097271886e-04 -2.8445788783770586e-04 0.0000000000000000e+00  -1.6540056646821288e-03 -3.4120443142051808e-02 0.0000000000000000e+00  -2.6483762938703417e-03 -2.4052493496956494e-02 0.0000000000000000e+00  -2.1848149586537685e-03 -3.7680792856958321e-02 0.0000000000000000e+00  -3.7452086934213523e-03 -4.8455051096592407e-02 0.0000000000000000e+00  -2.7570867273913678e-03 -4.1227406722607059e-02 0.0000000000000000e+00  -3.2770761552601032e-03 -4.4814519154155949e-02 0.0000000000000000e+00  -2.1231901140613173e-03 -2.0586600819172830e-02 0.0000000000000000e+00  -1.2189810354683837e-03 -3.0533859486282591e-02 0.0000000000000000e+00  -1.5728383950299311e-03 -1.3011771453439007e-02 0.0000000000000000e+00  -2.0813935966817383e-03 -1.8319479744675096e-02 0.0000000000000000e+00  -4.3927078073904193e-03 -5.4599107877558964e-02 0.0000000000000000e+00  -1.4640298824554160e-03 -1.1250896691717990e-02 0.0000000000000000e+00  -4.3442908692470162e-03 -5.2097653271949595e-02 0.0000000000000000e+00  -7.8607230769811532e-04 -3.9173429383851195e-03 0.0000000000000000e+00  -6.8405138763201945e-04 -2.8873878273960414e-03 0.0000000000000000e+00  -7.5290095610083150e-03 -6.4722732328429497e-02 0.0000000000000000e+00  -7.4504095121230808e-03 -6.2290514504547825e-02 0.0000000000000000e+00  -3.8483409976973939e-03 -4.7223511574375744e-02 0.0000000000000000e+00  -3.3576092515378853e-03 -4.3601825350633464e-02 0.0000000000000000e+00  -2.2020729524595646e-03 -3.6445371277743326e-02 0.0000000000000000e+00  -4.2252641795880305e-03 -5.0879802275391871e-02 0.0000000000000000e+00  -2.8210359771066447e-03 -4.0029693336341737e-02 0.0000000000000000e+00  -1.6656265120091216e-03 -3.2877259724032382e-02 0.0000000000000000e+00  -2.2273001370863420e-03 -2.1733592883613435e-02 0.0000000000000000e+00  2.4657257161998423e-04 -5.8980933242985022e-03 0.0000000000000000e+00  -7.1961123304997675e-03 -5.8240398288583038e-02 0.0000000000000000e+00  -6.9499415565343961e-03 -5.5782177584858407e-02 0.0000000000000000e+00  2.2275539474029589e-04