<?xml version="1.0"?>
<VTKFile type="UnstructuredGrid"  version="0.1"  >
<UnstructuredGrid>
<Piece  NumberOfPoints="439" NumberOfCells="725">
<Points>
<DataArray  type="Float64"  NumberOfComponents="3"  format="ascii">0.6000272220262837 0.1824465942083871 0  0.6004716321083514 0.2025200396974298 0  0.2489897949 0.21 0  0.2489897949 0.19 0  0.6002500786349375 0.1924828186514893 0  0.2496355385699469 0.2060260530378829 0  0.249959460510575 0.2020130349814059 0  0.2499594605105767 0.1979869650186357 0  0.24963553856995 0.1939739469621422 0  0.2539340722378626 0.2100036731816291 0  0.2588826819147971 0.2100125618705008 0  0.263834257787512 0.2100237421909308 0  0.2687900714270189 0.2100324410231978 0  0.2737497736499921 0.2100370831625855 0  0.2787140342568096 0.2100359394987937 0  0.2836796895084692 0.2100289930096809 0  0.2886473532584378 0.2100119990652015 0  0.2936179815413086 0.2099851717735908 0  0.2985893612134036 0.2099465331865243 0  0.303564440090849 0.2098899197567115 0  0.3085405292816946 0.2098299044229919 0  0.3135141853090254 0.2097474839121508 0  0.3184925515077087 0.2096525312810865 0  0.3234646410965689 0.2095445090749006 0  0.328436612405322 0.2094189110958335 0  0.3334057632833837 0.2092830617122442 0  0.3383718927256639 0.2091300509079999 0  0.3433335126182324 0.2089710670221471 0  0.3482924152116543 0.208800559092187 0  0.3532472935786568 0.208623063852242 0  0.3581979556486127 0.2084411885024839 0  0.3631438216488269 0.2082559637521023 0  0.3680863887806985 0.2080707664954745 0  0.3730230927226902 0.2078842770799272 0  0.3779568042190515 0.2077010658813847 0  0.3828860460910308 0.207521482033088 0  0.3878130314189478 0.2073466707745543 0  0.3927392625272857 0.2071795642899391 0  0.3976642013473621 0.2070270734238824 0  0.4025870588761984 0.2068775431459552 0  0.4075161217911454 0.206744170051884 0  0.412445606429284 0.2066268775891407 0  0.4173752153457242 0.2065128463413403 0  0.4223118483904528 0.2064161805493734 0  0.4272467387258941 0.2063259140852191 0  0.4321882932315694 0.206244221489195 0  0.4371308363289165 0.2061678195929626 0  0.4420774673255432 0.206095003518071 0  0.4470272105183505 0.2060233421310269 0  0.4519799493621958 0.2059510291745055 0  0.456936557914409 0.2058761903767338 0  0.46189443125439 0.2057996085397601 0  0.4668554171571515 0.2057188792244564 0  0.4718195799741727 0.2056328623479421 0  0.4767822099677014 0.2055428645086049 0  0.4817472015931848 0.2054478098939374 0  0.4867138809448266 0.2053461278642262 0  0.4916760272951688 0.2052380340941996 0  0.4966379550847933 0.205124552353542 0  0.5015984389608238 0.2050036063606305 0  0.5065524127413441 0.2048745548425706 0  0.5115026689024136 0.2047406098656392 0  0.5164478913293271 0.2046005893509037 0  0.5213872188500025 0.2044552844012321 0  0.5263216423632802 0.2043085033496929 0  0.531251246533578 0.2041605062761287 0  0.5361773753656648 0.2040141119724616 0  0.5411044871007644 0.2038693438265791 0  0.5460324768225456 0.2037322600979438 0  0.5509594684750004 0.2036035363015538 0  0.5558898700909413 0.2034735753638246 0  0.5608288340318868 0.2033574883540761 0  0.5657696151618661 0.2032438552369465 0  0.5707187447825397 0.2031345215385914 0  0.5756716797602711 0.2030327654612762 0  0.5806285234967192 0.2029288398104178 0  0.5855888339284819 0.2028289830520541 0  0.5905499301949899 0.2027283364826687 0  0.5955109533758612 0.20262515549288 0  0.5950621326929696 0.1825565256044446 0  0.5900928238316796 0.1826649873725532 0  0.5851212812293204 0.1827714482335159 0  0.5801489486324313 0.1828825820315419 0  0.5751764880271101 0.1829984969872313 0  0.570208652585244 0.1831171661343191 0  0.5652454954253748 0.1832439990975711 0  0.5602843088915114 0.1833773090481453 0  0.5553347955798438 0.1835127060304885 0  0.5503897956896583 0.1836552106269984 0  0.5454532510178713 0.1837966757795475 0  0.5405235333659261 0.1839444182404844 0  0.535594385275596 0.1840925031387216 0  0.5306707873495233 0.1842342523633196 0  0.5257499467814618 0.1843796136342055 0  0.520826842946987 0.1845195045751208 0  0.5159058284780466 0.1846538777814024 0  0.5109802161049708 0.1847866824813036 0  0.5060517842445799 0.1849112794341935 0  0.5011229006648781 0.1850334302772052 0  0.4961861637754486 0.1851507499649644 0  0.4912492546781757 0.1852598108999297 0  0.4863119381708033 0.185369968919968 0  0.481368318360438 0.1854724466198504 0  0.4764273984562885 0.1855663396371799 0  0.4714875925496043 0.1856616759131747 0  0.4665436695327441 0.1857479831131271 0  0.4616015359805217 0.1858267732328608 0  0.4566584825614111 0.1859052486158511 0  0.4517106074938125 0.1859758497476997 0  0.4467587935361241 0.186042028129813 0  0.4418057433957709 0.1861095049439292 0  0.4368455863823621 0.1861766198473231 0  0.4318823344289558 0.1862479139519857 0  0.4269132790845545 0.1863253124759461 0  0.4219416425771809 0.1864150928145255 0  0.4169654445899862 0.1865128304536807 0  0.4119912046573387 0.1866258066605864 0  0.4070167239792678 0.1867514665546068 0  0.4020443750685053 0.1868908259427391 0  0.3970775749036906 0.187042248128425 0  0.3921175918101064 0.1872019185046772 0  0.3871624569915373 0.1873703704184654 0  0.3822070839410642 0.187544913481741 0  0.3772583130372315 0.1877227989090968 0  0.3723104665957521 0.1879061692652306 0  0.3673652473066673 0.1880903283696718 0  0.3624214964288071 0.1882754499898565 0  0.3574806986590197 0.1884611207556924 0  0.3525431560980789 0.1886443593429679 0  0.3476113560528523 0.1888247935708035 0  0.3426820096446269 0.1889962925219612 0  0.3377597977320186 0.1891576306141239 0  0.3328357424305955 0.1893070569124068 0  0.3279141799071937 0.1894384595431785 0  0.3229943051120678 0.1895650927604902 0  0.3180721008604109 0.18967180796955 0  0.3131553829894217 0.1897658878749236 0  0.3082326659085731 0.189846673300336 0  0.3033107416610412 0.1899092275133075 0  0.2983858400108631 0.1899615883686822 0  0.2934581716325667 0.1899982037119632 0  0.2885318967036636 0.1900255716557616 0  0.2835981764606083 0.1900428531016699 0  0.2786648910909857 0.1900502332863379 0  0.2737261709425636 0.1900508897937676 0  0.2687856866479304 0.1900457863294514 0  0.2638410903513275 0.1900379952722122 0  0.2588935907288156 0.1900279216689896 0  0.253943410014393 0.1900151773109105 0  0.6001387409926998 0.1874651571252315 0  0.600361915858161 0.1975016093437035 0  0.2589822444205453 0.2005728884536798 0  0.5432910112600358 0.193802156425439 0  0.5683706044024666 0.1931167732858012 0  0.2774864505161395 0.2008475732771851 0  0.5140812566120296 0.1945836643313576 0  0.5288711915997312 0.1941409796752993 0  0.2945620344529181 0.1992932324487692 0  0.5829475837721551 0.1923818422646257 0  0.3104870219650652 0.1997938315495582 0  0.3371115112039829 0.2000179934982167 0  0.4992581055397372 0.1949814857636342 0  0.3553683412896499 0.1985476177954189 0  0.4844050613896671 0.1953219605935877 0  0.3708219683650091 0.1979757933467838 0  0.3899528698582225 0.197265740214939 0  0.4691669402104873 0.1952534739135172 0  0.4543214657884774 0.1959396707690248 0  0.4044200768077088 0.1969096206622605 0  0.4196435571215528 0.1964515011432179 0  0.4388398454509578 0.1961336058050321 0  0.3203306528817074 0.1996473878108403 0  0.5585256157550728 0.1933709629667764 0  0.4281775325011284 0.1961505348914297 0  0.3468566431758799 0.1990113873001158 0  0.3814516111124112 0.1977170272357396 0  0.2861135429591072 0.2000798222093476 0  0.5912984903024321 0.1909102926117722 0  0.2680115493034686 0.2017168038427766 0  0.4617829868281091 0.1980761828329665 0  0.491516763793631 0.1975105023478906 0  0.50636496741485 0.1971427757597465 0  0.3973002633285839 0.1947744429569288 0  0.4766488935973641 0.1978202624207675 0  0.5211769753975426 0.1967192131412873 0  0.4469249171217358 0.1982882903486584 0  0.5359622162743887 0.1962674807357956 0  0.4121599612002678 0.1943637936712827 0  0.3627038775603579 0.1960184565131927 0  0.3034101311462483 0.1976693567630954 0  0.5753754219241264 0.1907402394269848 0  0.5505062190401495 0.1907321099441849 0  0.3283529003622054 0.2023117835754741 0  0.5486544579637253 0.1974853736681806 0  0.3302190468132686 0.1955501908248915 0  0.5379704300427102 0.1901015811187123 0  0.5231930179041697 0.1905486425657889 0  0.5084016163532301 0.190970793285017 0  0.5777261490255455 0.1968328726346796 0  0.3012933253107953 0.2038124253752145 0  0.4787325250151696 0.1916616680164898 0  0.4935779602644011 0.1913430269722611 0  0.3952901944259068 0.2009639272747153 0  0.3607311219930249 0.2022210437736617 0  0.4594977831190205 0.1919942785432771 0  0.449035091923658 0.1921398145193249 0  0.4101087646878024 0.2005411072343493 0  0.2557921407729595 0.1961006465680258 0  0.255018434769927 0.2034518780479669 0  0.4349899324112055 0.1999739251500033 0  0.3745855925011761 0.1940454159413467 0  0.3405884285987553 0.1951222348395702 0  0.2813245268219369 0.1960985785018174 0  0.2912945672981934 0.1961019777381222 0  0.4248476964560113 0.2003136069879011 0  0.3501134373791848 0.194788656613385 0  0.384708532557001 0.1934961025210742 0  0.3166363696321937 0.1958729301938208 0  0.5623754436777898 0.1970731308190588 0  0.5624571459447407 0.1893654628765336 0  0.3163941546877783 0.2035816880312619 0  0.2711088314026733 0.1960194561299254 0  0.5876113460549226 0.1974875715688102 0  0.4347299734879569 0.1916702608452117 0  0.424360416204486 0.1922404698679173 0  0.3404922808652912 0.2038692799938648 0  0.2809230599303953 0.2048198280754298 0  0.2914957817176378 0.2047931517202621 0  0.3750102926971212 0.2023412110590313 0  0.3501845928510361 0.2039135925603362 0  0.3847698408590137 0.2026244074085408 0  0.2648307751168472 0.1962469419106764 0  0.5946454347255218 0.1966604652177711 0  0.5321526793262796 0.1897998735996004 0  0.5173740367931405 0.1902409698810256 0  0.3071270391983166 0.204212168202081 0  0.5025715889285293 0.1906433120310915 0  0.5719094399558945 0.1974275967664043 0  0.4877386005556766 0.1909936426744962 0  0.4729360004893186 0.1912863236207616 0  0.3665714443999156 0.202492
[...]
<PointData  Vectors="d"> 
<DataArray  type="Float64"  Name="d"  NumberOfComponents="3" format="ascii">2.7222026283824832e-05 -7.5534057916129289e-03 0.0000000000000000e+00  4.7163210835142678e-04 -7.4799603025701997e-03 0.0000000000000000e+00  0.0000000000000000e+00 0.0000000000000000e+00 0.0000000000000000e+00  0.0000000000000000e+00 0.0000000000000000e+00 0.0000000000000000e+00  2.5007863493733647e-04 -7.5171813485108404e-03 0.0000000000000000e+00  0.0000000000000000e+00 0.0000000000000000e+00 0.0000000000000000e+00  0.0000000000000000e+00 0.0000000000000000e+00 0.0000000000000000e+00  0.0000000000000000e+00 0.0000000000000000e+00 0.0000000000000000e+00  0.0000000000000000e+00 0.0000000000000000e+00 0.0000000000000000e+00  4.7163223347612172e-07 3.6731816291051536e-06 0.0000000000000000e+00  5.2756035428538671e-06 1.2561870500726007e-05 0.0000000000000000e+00  1.3045770619918360e-05 2.3742190930824977e-05 0.0000000000000000e+00  2.5053704489011217e-05 3.2441023197849264e-05 0.0000000000000000e+00  4.0950221835195808e-05 3.7083162585446256e-05 0.0000000000000000e+00  6.1405123034250091e-05 3.5939498793712472e-05 0.0000000000000000e+00  8.3254669075501071e-05 2.8993009681005270e-05 0.0000000000000000e+00  1.0711271342128533e-04 1.1999065201426286e-05 0.0000000000000000e+00  1.3393529065640962e-04 -1.4828226409154328e-05 0.0000000000000000e+00  1.6150925713271795e-04 -5.3466813475760168e-05 0.0000000000000000e+00  1.9278242894923037e-04 -1.1008024328861873e-04 0.0000000000000000e+00  2.2506591417649681e-04 -1.7009557700799522e-04 0.0000000000000000e+00  2.5491623588880875e-04 -2.5251608784928367e-04 0.0000000000000000e+00  2.8947672895378708e-04 -3.4746871891347067e-04 0.0000000000000000e+00  3.1776061219560285e-04 -4.5549092509937966e-04 0.0000000000000000e+00  3.4592621533031487e-04 -5.8108890416659262e-04 0.0000000000000000e+00  3.7127138776297391e-04 -7.1693828775579193e-04 0.0000000000000000e+00  3.9359512443530858e-04 -8.6994909200012059e-04 0.0000000000000000e+00  4.1140931137476549e-04 -1.0289329778528473e-03 0.0000000000000000e+00  4.2650619917832612e-04 -1.1994409078129979e-03 0.0000000000000000e+00  4.3757886056224597e-04 -1.3769361477580623e-03 0.0000000000000000e+00  4.4443522490011651e-04 -1.5588114975160611e-03 0.0000000000000000e+00  4.4649551949598582e-04 -1.7440362478976733e-03 0.0000000000000000e+00  4.4525694574892101e-04 -1.9292335045254371e-03 0.0000000000000000e+00  4.3815518211153789e-04 -2.1157229200727597e-03 0.0000000000000000e+00  4.2806097286381009e-04 -2.2989341186153010e-03 0.0000000000000000e+00  4.1349713921863611e-04 -2.4785179669120885e-03 0.0000000000000000e+00  3.9667676151398099e-04 -2.6533292254456707e-03 0.0000000000000000e+00  3.7910216422250780e-04 -2.8204357100609172e-03 0.0000000000000000e+00  3.6023527869159984e-04 -2.9729265761176695e-03 0.0000000000000000e+00  3.3928710189999470e-04 -3.1224568540448886e-03 0.0000000000000000e+00  3.2454431123451658e-04 -3.2558299481159473e-03 0.0000000000000000e+00  3.1022324375303483e-04 -3.3731224108593384e-03 0.0000000000000000e+00  2.9602645457237932e-04 -3.4871536586596756e-03 0.0000000000000000e+00  2.8885379368931950e-04 -3.5838194506266022e-03 0.0000000000000000e+00  2.7993842350221092e-04 -3.6740859147808050e-03 0.0000000000000000e+00  2.7768722354442336e-04 -3.7557785108049656e-03 0.0000000000000000e+00  2.7642461523914440e-04 -3.8321804070373987e-03 0.0000000000000000e+00  2.7924990621037255e-04 -3.9049964819289438e-03 0.0000000000000000e+00  2.8518739335361835e-04 -3.9766578689730192e-03 0.0000000000000000e+00  2.9412053155122560e-04 -4.0489708254945684e-03 0.0000000000000000e+00  3.0692337812252576e-04 -4.1238096232663847e-03 0.0000000000000000e+00  3.2099101247399787e-04 -4.2003914602398214e-03 0.0000000000000000e+00  3.3817120958483713e-04 -4.2811207755436625e-03 0.0000000000000000e+00  3.5852832097286037e-04 -4.3671376520577542e-03 0.0000000000000000e+00  3.7735260883460297e-04 -4.4571354913950619e-03 0.0000000000000000e+00  3.9853852867149009e-04 -4.5521901060626277e-03 0.0000000000000000e+00  4.2141217465041964e-04 -4.6538721357738486e-03 0.0000000000000000e+00  4.3975281936237234e-04 -4.7619659058004528e-03 0.0000000000000000e+00  4.5787490333231904e-04 -4.8754476464579321e-03 0.0000000000000000e+00  4.7455307373429082e-04 -4.9963936393694645e-03 0.0000000000000000e+00  4.8472114859488669e-04 -5.1254451574294169e-03 0.0000000000000000e+00  4.9117160402599783e-04 -5.2593901343607448e-03 0.0000000000000000e+00  4.9258832532317169e-04 -5.3994106490962918e-03 0.0000000000000000e+00  4.8811014036110402e-04 -5.5447155987679957e-03 0.0000000000000000e+00  4.7872794797940670e-04 -5.6914966503070243e-03 0.0000000000000000e+00  4.6452641263881010e-04 -5.8394937238713286e-03 0.0000000000000000e+00  4.4684953906626122e-04 -5.9858880275383899e-03 0.0000000000000000e+00  4.3015556852778750e-04 -6.1306561734209321e-03 0.0000000000000000e+00  4.1433958469257442e-04 -6.2677399020561186e-03 0.0000000000000000e+00  3.9752553150967511e-04 -6.3964636984463084e-03 0.0000000000000000e+00  3.8412144179545641e-04 -6.5264246361753453e-03 0.0000000000000000e+00  3.7927967709813689e-04 -6.6425116459239370e-03 0.0000000000000000e+00  3.7625510141761317e-04 -6.7561447630534064e-03 0.0000000000000000e+00  3.8157901642827183e-04 -6.8654784614085827e-03 0.0000000000000000e+00  3.9070828852506248e-04 -6.9672345387238000e-03 0.0000000000000000e+00  4.0374631933552641e-04 -7.0711601895821928e-03 0.0000000000000000e+00  4.2025104544796094e-04 -7.1710169479459402e-03 0.0000000000000000e+00  4.3754160630925129e-04 -7.2716635173313317e-03 0.0000000000000000e+00  4.5475908152056325e-04 -7.3748445071201117e-03 0.0000000000000000e+00  5.9383985863215298e-06 -7.4434743955552902e-03 0.0000000000000000e+00  -1.9564757078327642e-05 -7.3350126274468281e-03 0.0000000000000000e+00  -4.7301653798905904e-05 -7.2285517664841276e-03 0.0000000000000000e+00  -7.5828545041416276e-05 -7.1174179684580898e-03 0.0000000000000000e+00  -1.0448344474135396e-04 -7.0015030127687141e-03 0.0000000000000000e+00  -1.2851318098729183e-04 -6.8828338656809250e-03 0.0000000000000000e+00  -1.4786463524338661e-04 -6.7560009024288971e-03 0.0000000000000000e+00  -1.6524546347717022e-04 -6.6226909518546980e-03 0.0000000000000000e+00  -1.7095306951406860e-04 -6.4872939695115534e-03 0.0000000000000000e+00  -1.7214725404532779e-04 -6.3447893730015610e-03 0.0000000000000000e+00  -1.6488622023296028e-04 -6.2033242204523852e-03 0.0000000000000000e+00  -1.5079816657868157e-04 -6.0555817595155971e-03 0.0000000000000000e+00  -1.3614055130014546e-04 -5.9074968612784296e-03 0.0000000000000000e+00  -1.1593277173950370e-04 -5.7657476366803767e-03 0.0000000000000000e+00  -9.2967634200914786e-05 -5.6203863657944475e-03 0.0000000000000000e+00  -7.2265763037478945e-05 -5.4804954248790921e-03 0.0000000000000000e+00  -4.9474526375181663e-05 -5.3461222185975975e-03 0.0000000000000000e+00  -3.1281193851713552e-05 -5.2133175186963622e-03 0.0000000000000000e+00  -1.5907348637692675e-05 -5.0887205658064951e-03 0.0000000000000000e+00  -9.8522270236144197e-07 -4.9665697227947439e-03 0.0000000000000000e+00  6.0835934766270756e-06 -4.8492500350355858e-03 0.0000000000000000e+00  1.2980201822575649e-05 -4.7401891000702643e-03 0.0000000000000000e+00  1.9469400069025237e-05 -4.6300310800319443e-03 0.0000000000000000e+00  1.9655295333455646e-05 -4.5275533801496124e-03 0.0000000000000000e+00  2.2541096791908306e-05 -4.4336603628199875e-03 0.0000000000000000e+00  2.6540895735928955e-05 -4.3383240868253769e-03 0.0000000000000000e+00  2.6423584488679747e-05 -4.2520168868728832e-03 0.0000000000000000e+00  2.8095737886683820e-05 -4.1732267671390592e-03 0.0000000000000000e+00  2.8848024400813258e-05 -4.0947513841488661e-03 0.0000000000000000e+00  2.4778662431719981e-05 -4.0241502523002464e-03 0.0000000000000000e+00  1.6770410352449707e-05 -3.9579718701870346e-03 0.0000000000000000e+00  7.5259756243137640e-06 -3.8904950560707781e-03 0.0000000000000000e+00  -8.8253321676413195e-06 -3.8233801526769179e-03 0.0000000000000000e+00  -2.8271579957169712e-05 -3.7520860480142575e-03 0.0000000000000000e+00  -5.3521218732050584e-05 -3.6746875240538553e-03 0.0000000000000000e+00  -8.1352020467366154e-05 -3.5849071854744626e-03 0.0000000000000000e+00  -1.1374430201947542e-04 -3.4871695463192590e-03 0.0000000000000000e+00  -1.4417852902061493e-04 -3.3741933394137191e-03 0.0000000000000000e+00  -1.7485350143180069e-04 -3.2485334453931859e-03 0.0000000000000000e+00  -2.0339670654248896e-04 -3.1091740572608997e-03 0.0000000000000000e+00  -2.2639116569955474e-04 -2.9577518715750368e-03 0.0000000000000000e+00  -2.4256855364833781e-04 -2.7980814953227477e-03 0.0000000000000000e+00  -2.5389766657089868e-04 -2.6296295815346434e-03 0.0000000000000000e+00  -2.6546501141804267e-04 -2.4550865182589765e-03 0.0000000000000000e+00  -2.7043020959440688e-04 -2.2772010909031483e-03 0.0000000000000000e+00  -2.7447094542520017e-04 -2.0938307347694390e-03 0.0000000000000000e+00  -2.7588452884123952e-04 -1.9096716303281561e-03 0.0000000000000000e+00  -2.7582970105442909e-04 -1.7245500101435482e-03 0.0000000000000000e+00  -2.7282176519114089e-04 -1.5388792443075297e-03 0.0000000000000000e+00  -2.6655862051007954e-04 -1.3556406570321231e-03 0.0000000000000000e+00  -2.5455296007869445e-04 -1.1752064291965158e-03 0.0000000000000000e+00  -2.4009366266496306e-04 -1.0037074780387882e-03 0.0000000000000000e+00  -2.1849986963497157e-04 -8.4236938587612515e-04 0.0000000000000000e+00  -1.9874946541965170e-04 -6.9294308759310053e-04 0.0000000000000000e+00  -1.7650628318118908e-04 -5.6154045682143812e-04 0.0000000000000000e+00  -1.5257537264935325e-04 -4.3490723950981422e-04 0.0000000000000000e+00  -1.3097391864812127e-04 -3.2819203044995922e-04 0.0000000000000000e+00  -1.0388608397935314e-04 -2.3411212507650476e-04 0.0000000000000000e+00  -8.2797459185081601e-05 -1.5332669966399562e-04 0.0000000000000000e+00  -6.0916001078384416e-05 -9.0772486692529734e-05 0.0000000000000000e+00  -4.2011945618150618e-05 -3.8411631317893269e-05 0.0000000000000000e+00  -2.5874618276309531e-05 -1.7962880368068970e-06 0.0000000000000000e+00  -8.3438415238316445e-06 2.5571655761604702e-05 0.0000000000000000e+00  1.7416210786580622e-06 4.2853101669842471e-05 0.0000000000000000e+00  1.2261957114037865e-05 5.0233286337896053e-05 0.0000000000000000e+00  1.7347514339134809e-05 5.0889793767596730e-05 0.0000000000000000e+00  2.0668925344340214e-05 4.5786329451358973e-05 0.0000000000000000e+00  1.9878334379822945e-05 3.7995272212198377e-05 0.0000000000000000e+00  1.6184417506473099e-05 2.7921668989649761e-05 0.0000000000000000e+00  9.8094087350404345e-06 1.5177310910511906e-05 0.0000000000000000e+00  1.3874099269974946e-04 -7.5348428747468365e-03 0.0000000000000000e+00  3.6191585816076525e-04 -7.4983906562693624e-03 0.0000000000000000e+00  8.8178888960901966e-06 2.0499110839489295e-05 0.0000000000000000e+00  1.4477687472839732e-04 -6.1978435745300179e-03 0.0000000000000000e+00  1.3081492565053516e-04 -6.8536852950974768e-03 0.0000000000000000e+00  3.5057804337034131e-05 5.3381334992446722e-05 0.0000000000000000e+00  2.3167323513262098e-04 -5.3186783177342723e-03 0.0000000000000000e+00  1.9019110599318546e-04 -5.7613629737975043e-03 0.0000000000000000e+00  5.1139247153372996e-05 2.0416082305490079e-06 0.0000000000000000e+00  1.6950063366256475e-04 -7.1611378357091969e-03 0.0000000000000000e+00  7.4182308139641287e-05 -1.7662703133955511e-04 0.0000000000000000e+00  1.1133566212778231e-04 -8.1146774518001639e-04 0.0000000000000000e+00  2.3993927969121197e-04 -4.9208568854559893e-03 0.0000000000000000e+00  8.6723718745522303e-05 -1.4523822046419812e-03 0.0000000000000000e+00  2.1831224647450139e-04 -4.5803820554972778e-03 0.0000000000000000e+00  8.4596974454014944e-05 -2.0384443485851902e-03 0.0000000000000000e+00  6.4612347972953021e-05 -2.7342597851438993e-03 0.0000000000000000e+00  1.8118516121391767e-04 -4.2881985121521193e-03 0.0000000000000000e+00  1.6373410428083729e-04 -4.0603292308848621e-03 0.0000000000000000e+00  6.6585405875645972e-05 -3.1880366886638408e-03 0.0000000000000000e+00  9.2465377596033247e-05 -3.5484988568878352e-03 0.0000000000000000e+00  1.3786758650666925e-04 -3.8521564996451046e-03 0.0000000000000000e+00  8.3377856037170902e-05 -3.6149640379959424e-04 0.0000000000000000e+00  1.2026164698756042e-04 -6.6201528185812790e-03 0.0000000000000000e+00  1.1081781241483983e-04 -3.6983699293944051e-03 0.0000000000000000e+00  9.0648549332539543e-05 -1.1397078793216684e-03 0.0000000000000000e+00  7.8976546520526531e-05 -2.4340679437124010e-03 0.0000000000000000e+00  4.5205266897363685e-05 3.8277638729440710e-05 0.0000000000000000e+00  1.7610912431232156e-04 -7.3346233231021711e-03 0.0000000000000000e+00  2.2233157605892132e-05 4.1678196047501783e-05 0.0000000000000000e+00  2.0954658548122924e-04 -4.1741804958338267e-03 0.0000000000000000e+00  2.8048931728566907e-04 -4.7398609809184864e-03 0.0000000000000000e+00  2.9727582165175716e-04 -5.1075875690652431e-03 0.0000000000000000e+00  -3.7027400936521343e-06 -2.9751937142676668e-03 0.0000000000000000e+00  2.4403623787453511e-04 -4.4301009080375976e-03 0.0000000000000000e+00  2.7786668749695578e-04 -5.5311501875312426e-03 0.0000000000000000e+00  1.8289399597013183e-04 -3.9620729801415969e-03 0.0000000000000000e+00  2.3169044750398065e-04 -5.9828825930242566e-03 0.0000000000000000e+00  2.4578014736271655e-05 -3.3858429999150158e-03 0.0000000000000000e+00  6.5514310226589084e-06 -1.7311801579992156e-03 0.0000000000000000e+00  3.8473484352339942e-05 -8.0279908091437761e-05 0.0000000000000000e+00  9.4450452303487624e-05 -7.0093972441655208e-03 0.0000000000000000e+00  4.6363121093390967e-05 -6.3963685295818050e-03 0.0000000000000000e+00  1.6012714752123260e-04 -5.5973795076654518e-04 0.0000000000000000e+00  2.3655591397932547e-04 -6.3549479012957938e-03 0.0000000000000000e+00  -1.5680270730126016e-05 -6.0948760565753804e-04 0.0000000000000000e+00  4.9344818898758930e-05 -6.0236005456987558e-03 0.0000000000000000e+00  1.0334979720461642e-04 -5.5765390986168232e-03 0.0000000000000000e+00  1.4336536310800464e-04 -5.1543883793927761e-03 0.0000000000000000e+00  2.5461815683625884e-04 -7.0419457009090712e-03 0.0000000000000000e+00  1.1222704584062987e-04 -6.2392960379287389e-05 0.0000000000000000e+00  1.3710825875844063e-04 -4.4635136479142350e-03 0.0000000000000000e+00  1.5112639113398752e-04 -4.7821546921452294e-03 0.0000000000000000e+00  1.7678775414379480e-04 -2.9108910608813647e-03 0.0000000000000000e+00  2.2435526061313633e-04 -1.6537745619333544e-03 0.0000000000000000e+00  1.1490227330603845e-04 -4.1309031211221696e-03 0.0000000000000000e+00  1.0250940097760540e-04 -3.9853671450757449e-03 0.0000000000000000e+00  1.6394089918037551e-04 -3.3337111012496628e-03 0.0000000000000000e+00  5.8407927625242870e-06 1.4809542296317694e-05 0.0000000000000000e+00  3.6987389871707414e-06 9.2350488554280587e-06 0.0000000000000000e+00  1.8678476473660353e-04 -3.7998326141521423e-03 0.0000000000000000e+00  -5.0609107233813141e-05 -2.1808262945085697e-03 0.0000000000000000e+00  -3.7407987675227929e-05 -9.2455735441873460e-04 0.0000000000000000e+00  2.4358702953631413e-05 5.1786307767316551e-05 0.0000000000000000e+00  2.5928554204215265e-05 2.0344873193944736e-05 0.0000000000000000e+00  1.7716287402201139e-04 -3.6396008180532881e-03 0.0000000000000000e+00  -4.8738353728041832e-05 -1.2581355808027109e-03 0.0000000000000000e+00  -6.0283115268365401e-05 -2.5506896731617552e-03 0.0000000000000000e+00  4.0010938376744730e-06 -2.8652836954913368e-04 0.0000000000000000e+00  2.2044257244866069e-04 -6.7085184408403635e-03 0.0000000000000000e+00  1.5758242763761056e-05 -6.7107294846040708e-03 0.0000000000000000e+00  1.5465110446550407e-04 -2.8626771120724608e-04 0.0000000000000000e+00  2.0117981911038376e-05 4.9811797341632879e-05 0.0000000000000000e+00  3.0990841456220755e-04 -7.2352165342720078e-03 0.0000000000000000e+00  6.2016843685962249e-05 -3.7948851100396831e-03 0.0000000000000000e+00  3.0765796687421188e-05 -3.6352282259888842e-03 0.0000000000000000e+00  2.3632978193880217e-04 -9.2477003522751068e-04 0.0000000000000000e+00  5.4567254302047913e-05 4.5586294164128901e-05 0.0000000000000000e+00  8.8078403765611175e-05 1.2200013166644981e-05 0.0000000000000000e+00  2.3890008662789383e-04 -2.1936429858240708e-03 0.0000000000000000e+00  2.6294396114942374e-04 -1.2617487582943735e-03 0.0000000000000000e+00  2.4155202978396400e-04 -2.5509339100951677e-03 0.0000000000000000e+00  1.6288571341796557e-05 3.7967612038947976e-05 0.0000000000000000e+00  3.2067035923250041e-04 -7.3810771411470738e-03 0.0000000000000000e+00  5.5418280665313673e-05 -5.8446363054867308e-03 0.0000000000000000e+00  1.0819286436787805e-04 -5.4035400240597959e-03 0.0000000000000000e+00  1.3471363805091224e-04 -1.3463518517413045e-04 0.0000000000000000e+00  1.3716211660281895e-04 -5.0011978739949031e-03 0.0000000000000000e+00  2.4913638245962962e-04 -6.9192066208718537e-03 0.0000000000000000e+00  1.3559086060245117e-04 -4.6508672305869527e-03 0.0000000000000000e+00  1.2080295969231135e-04 -4.3539232702277551e-03 0.0000000000000000e+00  2.4126674716181993e-04 -1.8747342670049287e-03 0.0000000000000000e+00  1.1405166919310689e-04 -4.2220465589976096e-03 0.0000000000000000e+00  1.8444688129796213e-04 -3.0900732041166416e-03 0.0000000000000000e+00  8.5809775664808809e-05 -3.9079940672735267e-03 0.0000000000000000e+00  1.7798679440200949e-04 -3.4668909925000034e-03 0.0000000000000000e+00  9.4754551892522413e-05 -7.2459158240411325e-03 0.0000000000000000e+00  2.4230992414891276e-04 -6.5096140106594884e-03 0.0000000000000000e+00  -2.1578395176984627e-05 -4.5995218850976570e-04 0.0000000000000000e+00  3.1841945365580823e-05 4.5357516695608113e-05 0.0000000000000000e+00  1.4985213241441650e-05 2.8529498693384281e-05 0.0000000000000000e+00  2.3370268200737291e-04 -4.1078733667324827e-03 0.0000000000000000e+00  -7.5320858653862649e-06 -3.4881392796883024e-03 0.0000000000000000e+00  2.7217957652500070e-04 -4.3485411827248743e-03 0.0000000000000000e+00  3.4924214502091622e-04 -5.3946828768300066e-03 0.0000000000000000e+00  3.1636495917521020e-04 -4.6388075496435720e-03 0.0000000000000000e+00  3.4986208946813602e-04 -4.9866864595322098e-03 0.0000000000000000e+00  -4.0796013112809579e-05 -3.1246050744436148e-03 0.0000000000000000e+00  2.0627226482758997e-04 -3.9015576443585370e-03 0.0000000000000000e+00  -7.2558992094472728e-05 -1.9071606928461272e-03 0.0000000000000000e+00  -7.9773422379874806e-05 -2.8159828383502610e-03 0.0000000000000000e+00  2.8300826804173314e-04 -6.1292922011200179e-03 0.0000000000000000e+00  -7.8180412194440866e-05 -1.5477417665079414e-03 0.0000000000000000e+00  2.9349199723257972e-04 -5.8354159201342171e-03 0.0000000000000000e+00  3.4930847761033053e-06 -1.4057467334607817e-04 0.0000000000000000e+00  1.2870901176621216e-05 -3.1143664776799645e-05 0.0000000000000000e+00  5.8214512840962089e-05 -7.1041323571926019e-03 0.0000000000000000e+00  1.5730695613359388e-05 -6.9019470006509778e-03 0.0000000000000000e+00  3.2912144695737582e-04 -5.2526448421802655e-03 0.0000000000000000e+00  3.1962379367142236e-04 -4.8632919404188752e-03 0.0000000000000000e+00  2.4514992151816159e-04 -4.2583260444478375e-03 0.0000000000000000e+00  3.0748391512963575e-04 -5.6877112782098629e-03 0.0000000000000000e+00  2.8273744263531943e-04 -4.5340446449782463e-03 0.0000000000000000e+00  2.1393207106000156e-04 -4.0338874378591282e-03 0.0000000000000000e+00  -2.7320805853277347e-05 -3.2594778306257823e-03 0.0000000000000000e+00  1.9463228500479142e-04 -4.4519695633381333e-04 0.0000000000000000e+00  -1.1148354167225987e-05 -6.5178740283468699e-03 0.0000000000000000e+00  5.9665610062863479e-06 -6.2530064241317187e-03 0.0000000000000000e+00  2.1546074996156626e-04 -6.9607598606183905e-04 0.0000000000000000e+00  1.0829281878073778e-04 -4.0552895281606169e-03 0.0000000000000000e+00  -5.8719125189214983e-05 -7.7116431291623575e-04 0.000000000000