<?xml version="1.0"?>
<VTKFile type="UnstructuredGrid"  version="0.1"  >
<UnstructuredGrid>
<Piece  NumberOfPoints="439" NumberOfCells="725">
<Points>
<DataArray  type="Float64"  NumberOfComponents="3"  format="ascii">0.6001917644379396 0.1881656340069199 0  0.6007573122397074 0.2082953650131817 0  0.2489897949 0.21 0  0.2489897949 0.19 0  0.6004756856629342 0.1982303737752569 0  0.2496355385699469 0.2060260530378829 0  0.249959460510575 0.2020130349814059 0  0.2499594605105767 0.1979869650186357 0  0.24963553856995 0.1939739469621422 0  0.2539448680275405 0.2099854179906529 0  0.2588972602484708 0.2099768372252264 0  0.2638485211961119 0.2099686370077481 0  0.2687981824878566 0.2099618661311502 0  0.2737461566259988 0.2099568722292749 0  0.2786924474930081 0.2099541000831439 0  0.2836379793669409 0.2099540719897887 0  0.28858290636281 0.2099581515800647 0  0.2935267063020943 0.2099661905408701 0  0.2984703358688765 0.2099787001959859 0  0.3034133833953448 0.2099975127882988 0  0.3083562310921731 0.210017944837437 0  0.3133011497467275 0.2100453868800935 0  0.3182448979047151 0.2100770199886217 0  0.3231913784153339 0.210111798850063 0  0.3281387245389061 0.2101499443093244 0  0.3330879587105768 0.2101895437450458 0  0.3380391910093596 0.2102303641492056 0  0.3429917255008711 0.2102709479705751 0  0.347946727207458 0.2103105306990441 0  0.3529032215921609 0.2103483321879667 0  0.3578605724349224 0.2103825103238467 0  0.3628191984577622 0.2104104277549327 0  0.3677784625742425 0.2104356815288631 0  0.3727361681083413 0.2104513593037184 0  0.3776925050166801 0.2104618492122175 0  0.3826477927831696 0.2104639296413626 0  0.3876019663335291 0.2104593985867264 0  0.3925545951758138 0.2104490856531663 0  0.3975091898298386 0.2104309417724354 0  0.4024624310872705 0.2104125986656042 0  0.4074154183456113 0.2103874701372225 0  0.4123682691916988 0.2103598405728529 0  0.417319773829486 0.2103312017742642 0  0.4222701255382371 0.2103000400420114 0  0.4272178854102864 0.2102670527521688 0  0.4321637348302236 0.2102362159693622 0  0.4371055728449215 0.2102055473772795 0  0.4420464600521471 0.2101791882456984 0  0.4469860054452559 0.2101578671168212 0  0.4519237307760106 0.2101421602884637 0  0.4568609821908948 0.2101324907573831 0  0.4618000030681402 0.2101324561894571 0  0.466740038574995 0.2101390026070903 0  0.4716837030215029 0.2101516785261464 0  0.476629432579772 0.2101723446847316 0  0.4815797414540592 0.2101948347414268 0  0.4865359666585564 0.2102174583146089 0  0.4914916318861474 0.2102385090266095 0  0.4964517368522401 0.2102533784161094 0  0.5014163500406785 0.2102592571493927 0  0.5063769790028922 0.210253146827669 0  0.5113393231187954 0.2102340922467934 0  0.5163024969713657 0.2101999091582133 0  0.5212603716206827 0.210149544286714 0  0.526218747086719 0.2100852611748117 0  0.5311763291751318 0.2100063069635048 0  0.5361320087053458 0.2099147100321512 0  0.5410878356313358 0.2098127488191949 0  0.5460448741894536 0.2097022471046596 0  0.5510034482856062 0.20958626619179 0  0.5559647282533386 0.2094658008241028 0  0.5609337209092269 0.2093431065462653 0  0.5659055746660224 0.2092166549778962 0  0.5708819197218641 0.2090873566301751 0  0.5758608632780567 0.20895890830677 0  0.5808413392293944 0.2088268624590073 0  0.5858228885034176 0.2086960291249138 0  0.5908031097037768 0.2085634991876936 0  0.5957812477091528 0.2084303702502144 0  0.595212185519018 0.18830778231124 0  0.5902273868692346 0.188450432829121 0  0.5852403031984825 0.1885925971407673 0  0.5802539308977869 0.1887403067747499 0  0.5752694925313575 0.1888915377155958 0  0.5702920979387213 0.1890439032688656 0  0.5653238322728275 0.1891984894116181 0  0.5603641103503204 0.1893542147048536 0  0.5554174328145336 0.189503663521937 0  0.5504821722373336 0.1896475187849541 0  0.545558319365124 0.1897814798676179 0  0.5406440790067704 0.1899042756613112 0  0.5357365557765208 0.1900098472374868 0  0.5308359462745595 0.1901039788932106 0  0.5259378224396977 0.1901791857944242 0  0.5210401887685648 0.1902311824207673 0  0.5161439118878892 0.1902730216321626 0  0.5112379738599983 0.1902948227247768 0  0.5063273023627699 0.1902975359515827 0  0.5014136263558119 0.1902956912356369 0  0.4964851690015933 0.1902807512530717 0  0.4915512876142142 0.1902568678211096 0  0.4866135953684748 0.1902350532096813 0  0.4816643449834688 0.190209819077186 0  0.4767120252202175 0.1901856380163666 0  0.4717581753514712 0.1901673963433789 0  0.4667986539771189 0.1901527579829285 0  0.461839048299075 0.1901458519459959 0  0.4568797603635767 0.1901432610817997 0  0.4519209033344864 0.1901482430081869 0  0.4469607483425858 0.1901601645026522 0  0.4420026994239029 0.1901747888339348 0  0.437045162218798 0.190196373321327 0  0.4320896155530304 0.1902204690727109 0  0.4271344508570853 0.1902483555259009 0  0.4221813638099477 0.190278962234626 0  0.4172296974247871 0.190310785581876 0  0.412281135284645 0.1903428251193184 0  0.4073362001574721 0.1903742284102215 0  0.4023951601947975 0.190403388558238 0  0.3974578740717752 0.1904280331321096 0  0.3925227461374151 0.190447758419237 0  0.3875897807710978 0.1904594634319502 0  0.3826592547537008 0.1904652696783624 0  0.3777266001925802 0.1904610691427222 0  0.3727935951680753 0.1904492788263727 0  0.3678561718549764 0.1904311873325341 0  0.3629160458508522 0.1904071393447795 0  0.3579723612046513 0.1903795664101569 0  0.353026380258195 0.1903482656824905 0  0.3480798157592134 0.1903147433320699 0  0.3431310869267548 0.190279529047161 0  0.3381808214487634 0.1902421090794029 0  0.3332292135956193 0.1902036562209901 0  0.3282749020453634 0.1901663433721909 0  0.3233191598645742 0.1901294931859565 0  0.3183615559393068 0.1900961227912606 0  0.3134016787822647 0.1900666045757587 0  0.3084429842514422 0.190040923689851 0  0.3034837101916472 0.1900204881893775 0  0.2985252979659138 0.1900031787644823 0  0.2935671240230228 0.1899907850171061 0  0.2886079711578429 0.1899821873183968 0  0.2836507654467101 0.1899774188973292 0  0.2786937111820659 0.1899772904726191 0  0.2737389795149421 0.1899798169426702 0  0.268785701597711 0.1899847037537036 0  0.2638339340924335 0.1899905916470484 0  0.258883739308962 0.1899968655074694 0  0.2539357708304751 0.190001003524503 0  0.6003346377702952 0.1931984780448869 0  0.6006174328461392 0.2032629624627702 0  0.2589849470649525 0.200539369883278 0  0.5433378204072601 0.1997809083241318 0  0.5684823667193272 0.1990725424698032 0  0.2774907063706928 0.2007561372970092 0  0.5141273858682571 0.2001602419574548 0  0.5289107635988393 0.19998682063875 0  0.294576887911197 0.199267711189681 0  0.5831121996600692 0.1982428777873279 0  0.3105000894602645 0.200005716051132 0  0.3371250672620839 0.2010577237467332 0  0.4993157597753144 0.2001896159884694 0  0.3554412397003301 0.2003690679775746 0  0.4844716140530611 0.2001306277757228 0  0.370916634834278 0.2004676236679514 0  0.3900653960773655 0.200462655297393 0  0.4692458202730506 0.1997020385532579 0  0.4543965663669152 0.2001441028488546 0  0.4045313087120232 0.2005003263520557 0  0.41974687973785 0.2003078839187646 0  0.4389248330312547 0.2001785463031849 0  0.3203512472040675 0.2001048875368888 0  0.5586054561434113 0.1993674721636443 0  0.4282748513022059 0.200102015021516 0  0.3469103481431896 0.2004582773355597 0  0.3815526016872905 0.2006244479703128 0  0.2861205958964405 0.2000056953413437 0  0.5914859296151326 0.196710018632177 0  0.2680154541659051 0.2016465221373697 0  0.4618174805553578 0.2023912886491781 0  0.4915245786039718 0.2025076312130939 0  0.5063663029801776 0.2025323034719768 0  0.3974740437560432 0.1981864646727543 0  0.4766684362718477 0.202435471863394 0  0.5211801581375753 0.2024353969045377 0  0.4469755090378292 0.2024103782064703 0  0.5359816134222587 0.2021906908757418 0  0.4123113659429277 0.1981033076121505 0  0.3628784769255909 0.1981637395015496 0  0.3034564230966517 0.1977561782088645 0  0.5755040748688273 0.1966500870069193 0  0.550574641323586 0.1967329215756135 0  0.3282911335860668 0.2030261253412829 0  0.5486984483786748 0.2034785247521851 0  0.3303811944994481 0.1963361534836285 0  0.538046262526693 0.1960477073075568 0  0.5232944981224601 0.1963085842219694 0  0.5085334434838371 0.1964167720776822 0  0.5778905841579752 0.2027380216876747 0  0.3012416038252769 0.2038662844669379 0  0.4788833797581773 0.1963270277080036 0  0.4937285110274718 0.1963988151707018 0  0.3952977941793318 0.2043204002060739 0  0.3606557242400987 0.2042778187779903 0  0.4596336012306613 0.1962703919881945 0  0.4491627393461393 0.1962801346324237 0  0.4101439985153426 0.2042464533591521 0  0.2557920834183492 0.1960816067923812 0  0.2550216077443107 0.2034341276930746 0  0.4350335570363588 0.2039892517937051 0  0.3748258788898586 0.196689043806748 0  0.3407887953662671 0.1963072004171609 0  0.2813472948393714 0.19601374537457 0  0.2913349681192501 0.196056605224881 0  0.4248910851546424 0.2042314393575057 0  0.3503378823166894 0.196380027125657 0  0.3849489707500869 0.1965180993712285 0  0.3167509950741051 0.1962357921429447 0  0.5624739208733597 0.2030587009381939 0  0.5625433108084834 0.1953448309087211 0  0.3163156741946443 0.203933945736138 0  0.2711179144077593 0.195943891428313 0  0.587821948121648 0.2033283884235774 0  0.4348721487012012 0.1956760678904574 0  0.4245161535632608 0.1961478087746366 0  0.3403583262695216 0.2050465510993956 0  0.2809106754766302 0.2047313195435757 0  0.2914588025178824 0.2047460919878999 0  0.3749409559859443 0.2049987404242423 0  0.3500399201825998 0.2055044766140424 0  0.3847064807868744 0.2056444251151636 0  0.2648337005861906 0.1961913258634707 0  0.5948776040761455 0.2024541880306446 0  0.5322405482194381 0.1956887949433485 0  0.5174950454508738 0.1958904349728397 0  0.3070565987213287 0.2043615891815915 0  0.5027229946070944 0.1959417995668324 0  0.5720509370059058 0.2033684830289554 0  0.4879031643519366 0.195892768318948 0  0.4730938467718509 0.1958172242292587 0  0.3664872163960262 0.2048013892628794 0  0.46
[...]
<PointData  Vectors="d"> 
<DataArray  type="Float64"  Name="d"  NumberOfComponents="3" format="ascii">1.9176443793982121e-04 -1.8343659930800875e-03 0.0000000000000000e+00  7.5731223970743652e-04 -1.7046349868183640e-03 0.0000000000000000e+00  0.0000000000000000e+00 0.0000000000000000e+00 0.0000000000000000e+00  0.0000000000000000e+00 0.0000000000000000e+00 0.0000000000000000e+00  4.7568566293420162e-04 -1.7696262247432119e-03 0.0000000000000000e+00  0.0000000000000000e+00 0.0000000000000000e+00 0.0000000000000000e+00  0.0000000000000000e+00 0.0000000000000000e+00 0.0000000000000000e+00  0.0000000000000000e+00 0.0000000000000000e+00 0.0000000000000000e+00  0.0000000000000000e+00 0.0000000000000000e+00 0.0000000000000000e+00  1.1267421911389761e-05 -1.4582009347015797e-05 0.0000000000000000e+00  1.9853937216563771e-05 -2.3162774773631257e-05 0.0000000000000000e+00  2.7309179219794786e-05 -3.1362992251828820e-05 0.0000000000000000e+00  3.3164765326660278e-05 -3.8133868849745902e-05 0.0000000000000000e+00  3.7333197841810185e-05 -4.3127770725150627e-05 0.0000000000000000e+00  3.9818359232738863e-05 -4.5899916856133457e-05 0.0000000000000000e+00  4.1544527547162835e-05 -4.5928010211209853e-05 0.0000000000000000e+00  4.2665817793459984e-05 -4.1848419935311916e-05 0.0000000000000000e+00  4.2660051442105914e-05 -3.3809459129884788e-05 0.0000000000000000e+00  4.2483912605673993e-05 -2.1299804014128570e-05 0.0000000000000000e+00  4.1725733445134729e-05 -2.4872117012268190e-06 0.0000000000000000e+00  4.0767724655142334e-05 1.7944837437159317e-05 0.0000000000000000e+00  4.1880673590924634e-05 4.5386880093446338e-05 0.0000000000000000e+00  4.1823125960083919e-05 7.7019988621707721e-05 0.0000000000000000e+00  4.4497930960625231e-05 1.1179885006306213e-04 0.0000000000000000e+00  4.8038348914461976e-05 1.4994430932436134e-04 0.0000000000000000e+00  5.3466814955997257e-05 1.8954374504583275e-04 0.0000000000000000e+00  6.0893408131055916e-05 2.3036414920562322e-04 0.0000000000000000e+00  6.9622194013500149e-05 2.7094797057523971e-04 0.0000000000000000e+00  8.0818194981988669e-05 3.1053069904412000e-04 0.0000000000000000e+00  9.3506874066378150e-05 3.4833218796666705e-04 0.0000000000000000e+00  1.0705201120990291e-04 3.8251032384664576e-04 0.0000000000000000e+00  1.2187232843122365e-04 4.1042775493281314e-04 0.0000000000000000e+00  1.3733073929288094e-04 4.3568152886315622e-04 0.0000000000000000e+00  1.5123056776258342e-04 4.5135930371848528e-04 0.0000000000000000e+00  1.6376177049247357e-04 4.6184921221744930e-04 0.0000000000000000e+00  1.7524383135740209e-04 4.6392964136257662e-04 0.0000000000000000e+00  1.8561167609529219e-04 4.5939858672645493e-04 0.0000000000000000e+00  1.9443481275065706e-04 4.4908565316622228e-04 0.0000000000000000e+00  2.0522376116814014e-04 4.3094177243536953e-04 0.0000000000000000e+00  2.1465931297207839e-04 4.1259866560410435e-04 0.0000000000000000e+00  2.2384086570049615e-04 3.8747013722261945e-04 0.0000000000000000e+00  2.3288600616782425e-04 3.5984057285286285e-04 0.0000000000000000e+00  2.4058493833430250e-04 3.3120177426420038e-04 0.0000000000000000e+00  2.4713094147350720e-04 3.0004004201141058e-04 0.0000000000000000e+00  2.5108510789453365e-04 2.6705275216887562e-04 0.0000000000000000e+00  2.5312882219862557e-04 2.3621596936223126e-04 0.0000000000000000e+00  2.5116113124423555e-04 2.0554737727945094e-04 0.0000000000000000e+00  2.4824263281435980e-04 1.7918824569846496e-04 0.0000000000000000e+00  2.4398232025902696e-04 1.5786711682131140e-04 0.0000000000000000e+00  2.3790194536599081e-04 1.4216028846362834e-04 0.0000000000000000e+00  2.3134765460835970e-04 1.3249075738295987e-04 0.0000000000000000e+00  2.2656282622420370e-04 1.3245618945706755e-04 0.0000000000000000e+00  2.2279262742840600e-04 1.3900260709030367e-04 0.0000000000000000e+00  2.2265136830306500e-04 1.5167852614642689e-04 0.0000000000000000e+00  2.2457522090522960e-04 1.7234468473160795e-04 0.0000000000000000e+00  2.3107838954583142e-04 1.9483474142683387e-04 0.0000000000000000e+00  2.4349788838014778e-04 2.1745831460890654e-04 0.0000000000000000e+00  2.5535741034091105e-04 2.3850902660951348e-04 0.0000000000000000e+00  2.7165667077910598e-04 2.5337841610947875e-04 0.0000000000000000e+00  2.9246415358916996e-04 2.5925714939273482e-04 0.0000000000000000e+00  3.0928741014313668e-04 2.5314682766906815e-04 0.0000000000000000e+00  3.2782582040779347e-04 2.3409224679338017e-04 0.0000000000000000e+00  3.4719396736155548e-04 1.9990915821319692e-04 0.0000000000000000e+00  3.6126291104122201e-04 1.4954428671390971e-04 0.0000000000000000e+00  3.7583267141845495e-04 8.5261174811782572e-05 0.0000000000000000e+00  3.8960905419243783e-04 6.3069635047957609e-06 0.0000000000000000e+00  4.0148287874726396e-04 -8.5289967848798179e-05 0.0000000000000000e+00  4.1350409909900291e-04 -1.8725118080506711e-04 0.0000000000000000e+00  4.2673695160043331e-04 -2.9775289534030724e-04 0.0000000000000000e+00  4.4150534211539100e-04 -4.1373380821005992e-04 0.0000000000000000e+00  4.5897960419286190e-04 -5.3419917589712343e-04 0.0000000000000000e+00  4.8416655443829189e-04 -6.5689345373483332e-04 0.0000000000000000e+00  5.1221460557402407e-04 -7.8334502210373590e-04 0.0000000000000000e+00  5.4475395575265620e-04 -9.1264336982481529e-04 0.0000000000000000e+00  5.7989180631076590e-04 -1.0410916932300583e-03 0.0000000000000000e+00  6.1656205201081544e-04 -1.1731375409927208e-03 0.0000000000000000e+00  6.5430562038351712e-04 -1.3039708750863241e-03 0.0000000000000000e+00  6.9072111509617515e-04 -1.4365008123064216e-03 0.0000000000000000e+00  7.2505341481204422e-04 -1.5696297497857245e-03 0.0000000000000000e+00  1.5599122463467839e-04 -1.6922176887599315e-03 0.0000000000000000e+00  1.1499828047662240e-04 -1.5495671708789646e-03 0.0000000000000000e+00  7.1720315363208446e-05 -1.4074028592327261e-03 0.0000000000000000e+00  2.9153720314171005e-05 -1.2596932252500949e-03 0.0000000000000000e+00  -1.1478940493996714e-05 -1.1084622844041950e-03 0.0000000000000000e+00  -4.5067827510236001e-05 -9.5609673113443091e-04 0.0000000000000000e+00  -6.9527787790936842e-05 -8.0151058838192062e-04 0.0000000000000000e+00  -8.5444004668246913e-05 -6.4578529514637236e-04 0.0000000000000000e+00  -8.8315834824299720e-05 -4.9633647806297506e-04 0.0000000000000000e+00  -7.9770706369969980e-05 -3.5248121504594473e-04 0.0000000000000000e+00  -5.9817872980322749e-05 -2.1852013238199598e-04 0.0000000000000000e+00  -3.0252525734320991e-05 -9.5724338688877556e-05 0.0000000000000000e+00  6.0299496246960579e-06 9.8472374867307177e-06 0.0000000000000000e+00  4.9226153296644007e-05 1.0397889321061486e-04 0.0000000000000000e+00  9.4908024034987589e-05 1.7918579442426788e-04 0.0000000000000000e+00  1.4108005854042167e-04 2.3118242076732064e-04 0.0000000000000000e+00  1.8860888346735141e-04 2.7302163216253800e-04 0.0000000000000000e+00  2.2647656117573005e-04 2.9482272477689299e-04 0.0000000000000000e+00  2.5961076955260010e-04 2.9753595158263921e-04 0.0000000000000000e+00  2.8974046823140816e-04 2.9569123563688685e-04 0.0000000000000000e+00  3.0508881962127533e-04 2.8075125307173521e-04 0.0000000000000000e+00  3.1501313786117500e-04 2.5686782110964786e-04 0.0000000000000000e+00  3.2112659774045173e-04 2.3505320968142420e-04 0.0000000000000000e+00  3.1568191836428013e-04 2.0981907718596935e-04 0.0000000000000000e+00  3.0716786072090775e-04 1.8563801636670361e-04 0.0000000000000000e+00  2.9712369760283264e-04 1.6739634337883808e-04 0.0000000000000000e+00  2.8140802886350460e-04 1.5275798292857973e-04 0.0000000000000000e+00  2.6560805643996937e-04 1.4585194599603382e-04 0.0000000000000000e+00  2.5012582656653919e-04 1.4326108179965269e-04 0.0000000000000000e+00  2.3507450310554880e-04 1.4824300818696830e-04 0.0000000000000000e+00  2.1872521681414207e-04 1.6016450265219129e-04 0.0000000000000000e+00  2.0448200375630275e-04 1.7478883393473192e-04 0.0000000000000000e+00  1.9075050426831436e-04 1.9637332132695461e-04 0.0000000000000000e+00  1.7900954411732159e-04 2.2046907271092001e-04 0.0000000000000000e+00  1.6765055379882752e-04 2.4835552590095133e-04 0.0000000000000000e+00  1.5836921229942365e-04 2.7896223462598461e-04 0.0000000000000000e+00  1.5050853278139991e-04 3.1078558187600300e-04 0.0000000000000000e+00  1.4575209828566267e-04 3.4282511931827238e-04 0.0000000000000000e+00  1.4462267677249754e-04 3.7422841022147180e-04 0.0000000000000000e+00  1.4738841974980409e-04 4.0338855823798006e-04 0.0000000000000000e+00  1.5390800238501251e-04 4.2803313210950392e-04 0.0000000000000000e+00  1.6258577366031911e-04 4.4775841923707326e-04 0.0000000000000000e+00  1.7342611298958887e-04 4.5946343195007165e-04 0.0000000000000000e+00  1.8670580121858441e-04 4.6526967836241250e-04 0.0000000000000000e+00  1.9785694575432487e-04 4.6106914272214702e-04 0.0000000000000000e+00  2.0865762689800739e-04 4.4927882637272248e-04 0.0000000000000000e+00  2.1504001946792386e-04 4.3118733253415790e-04 0.0000000000000000e+00  2.1871972099071901e-04 4.0713934477955489e-04 0.0000000000000000e+00  2.1884078044044305e-04 3.7956641015699568e-04 0.0000000000000000e+00  2.1666553960596896e-04 3.4826568249045071e-04 0.0000000000000000e+00  2.1390674628250406e-04 3.1474333206987613e-04 0.0000000000000000e+00  2.0898361946296420e-04 2.7952904716099813e-04 0.0000000000000000e+00  2.0252384710975623e-04 2.4210907940286434e-04 0.0000000000000000e+00  1.9472169960410484e-04 2.0365622099021834e-04 0.0000000000000000e+00  1.8421585498854499e-04 1.6634337219089903e-04 0.0000000000000000e+00  1.7227937985699667e-04 1.2949318595649611e-04 0.0000000000000000e+00  1.5848116024788349e-04 9.6122791260657282e-05 0.0000000000000000e+00  1.4240970886354758e-04 6.6604575758567750e-05 0.0000000000000000e+00  1.2752088368403193e-04 4.0923689850975973e-05 0.0000000000000000e+00  1.1205252952753477e-04 2.0488189377524995e-05 0.0000000000000000e+00  9.7446009432522351e-05 3.1787644822584303e-06 0.0000000000000000e+00  8.3077772179842560e-05 -9.2149828938311227e-06 0.0000000000000000e+00  6.7730612655399330e-05 -1.7812681603252048e-05 0.0000000000000000e+00  5.4330607180437496e-05 -2.2581102670861751e-05 0.0000000000000000e+00  4.1082048194212019e-05 -2.2709527381001414e-05 0.0000000000000000e+00  3.0156086717671361e-05 -2.0183057329719679e-05 0.0000000000000000e+00  2.0683875124888542e-05 -1.5296246296496741e-05 0.0000000000000000e+00  1.2722075485825848e-05 -9.4083529515727405e-06 0.0000000000000000e+00  6.3329976527962276e-06 -3.1344925305703950e-06 0.0000000000000000e+00  2.1702248171510782e-06 1.0035245029912813e-06 0.0000000000000000e+00  3.3463777029520960e-04 -1.8015219550913618e-03 0.0000000000000000e+00  6.1743284613895470e-04 -1.7370375372026360e-03 0.0000000000000000e+00  1.1520533303196963e-05 -1.3019459562341187e-05 0.0000000000000000e+00  1.9158602195272915e-04 -2.1909167583716944e-04 0.0000000000000000e+00  2.4257724251115214e-04 -8.9791611109545501e-04 0.0000000000000000e+00  3.9313658890401828e-05 -3.8054645183497162e-05 0.0000000000000000e+00  2.7780249136015082e-04 2.5789930836292771e-04 0.0000000000000000e+00  2.2976310510130075e-04 8.4477989653224250e-05 0.0000000000000000e+00  6.5992705432276058e-05 -2.3479650857603256e-05 0.0000000000000000e+00  3.3411652157670156e-04 -1.3001023130070756e-03 0.0000000000000000e+00  8.7249803338897104e-05 3.5257470234244831e-05 0.0000000000000000e+00  1.2489172022876814e-04 2.2826250333648742e-04 0.0000000000000000e+00  2.9759351526842848e-04 2.8727333937920323e-04 0.0000000000000000e+00  1.5962212942576147e-04 3.6906797751372231e-04 0.0000000000000000e+00  2.8486490986848634e-04 2.2828512663781747e-04 0.0000000000000000e+00  1.7926344372287071e-04 4.5338597258246546e-04 0.0000000000000000e+00  1.7713856711593529e-04 4.6265529731010234e-04 0.0000000000000000e+00  2.6006522377714192e-04 1.6036612758851590e-04 0.0000000000000000e+00  2.3883468271869988e-04 1.4410284894492701e-04 0.0000000000000000e+00  1.7781731019008253e-04 4.0266900113134711e-04 0.0000000000000000e+00  1.9578799389327923e-04 3.0788391865892146e-04 0.0000000000000000e+00  2.2285516680355997e-04 1.9278399850772038e-04 0.0000000000000000e+00  1.0397217839730931e-04 9.6003322248923505e-05 0.0000000000000000e+00  2.0010203532602587e-04 -6.2364362171336200e-04 0.0000000000000000e+00  2.0813661349230786e-04 2.5311020069194046e-04 0.0000000000000000e+00  1.4435351664216292e-04 3.0718215612231682e-04 0.0000000000000000e+00  1.7996712139990774e-04 4.7335279086082731e-04 0.0000000000000000e+00  5.2258204230687239e-05 -3.5849229274510634e-05 0.0000000000000000e+00  3.6354843701290860e-04 -1.5348973026974035e-03 0.0000000000000000e+00  2.6138020042309554e-05 -2.8603509359356431e-05 0.0000000000000000e+00  2.4404031272994445e-04 1.4092532037777864e-04 0.0000000000000000e+00  2.8830412762644215e-04 2.5726788428474877e-04 0.0000000000000000e+00  2.9861138697932495e-04 2.8194014316500470e-04 0.0000000000000000e+00  1.7007768736557432e-04 4.3682800155784250e-04 0.0000000000000000e+00  2.6357891235822748e-04 1.8510853458898472e-04 0.0000000000000000e+00  2.8104942752974914e-04 1.8503357571916397e-04 0.0000000000000000e+00  2.3348591206355312e-04 1.6001487767035470e-04 0.0000000000000000e+00  2.5108759537411816e-04 -5.9672453078003460e-05 0.0000000000000000e+00  1.7598275739607011e-04 3.5367094095282634e-04 0.0000000000000000e+00  1.8115079625565883e-04 4.1410283035769473e-04 0.0000000000000000e+00  8.4765434755791689e-05 6.5415376776060751e-06 0.0000000000000000e+00  2.2310339700440501e-04 -1.0995496642310398e-03 0.0000000000000000e+00  1.1478540452984475e-04 -3.9555689815320901e-04 0.0000000000000000e+00  9.8360371382604560e-05 1.5460381504225849e-04 0.0000000000000000e+00  2.8054632892888284e-04 -3.6179681729128381e-04 0.0000000000000000e+00  1.4646741544927934e-04 1.7647505307942900e-04 0.0000000000000000e+00  1.2517730288147627e-04 -7.7474356854194968e-05 0.0000000000000000e+00  2.0483001549483339e-04 1.8340255756367033e-04 0.0000000000000000e+00  2.7519249371502438e-04 2.9159041327239064e-04 0.0000000000000000e+00  4.1905328926606419e-04 -1.1367966479139523e-03 0.0000000000000000e+00  6.0505560322268982e-05 -8.5338686559195433e-06 0.0000000000000000e+00  2.8796300176616964e-04 2.0184604359956140e-04 0.0000000000000000e+00  3.0167715420474769e-04 2.7363350629549534e-04 0.0000000000000000e+00  1.8438750756873077e-04 4.4558187047731785e-04 0.0000000000000000e+00  1.4895750768689821e-04 4.0300044239526147e-04 0.0000000000000000e+00  2.5072038494679884e-04 1.4521032379520267e-04 0.0000000000000000e+00  2.3015682345894380e-04 1.5495296802308444e-04 0.0000000000000000e+00  1.9917472672061054e-04 3.7163502355302107e-04 0.0000000000000000e+00  5.7834381522171622e-06 -4.2302333482715571e-06 0.0000000000000000e+00  6.8717133708152919e-06 -8.5153060368739134e-06 0.0000000000000000e+00  2.3040938988982913e-04 2.1549402954967726e-04 0.0000000000000000e+00  1.8967728144865488e-04 4.6280157089267801e-04 0.0000000000000000e+00  1.6295877983655858e-04 2.6040822317198963e-04 0.0000000000000000e+00  4.7126720388104485e-05 -3.3046819480087103e-05 0.0000000000000000e+00  6.6329375260910312e-05 -2.5027640047269118e-05 0.0000000000000000e+00  2.2055157265314898e-04 2.7823155155128624e-04 0.0000000000000000e+00  1.7570658377659879e-04 3.3323493146919460e-04 0.0000000000000000e+00  1.8015507781753110e-04 4.7130717699250785e-04 0.0000000000000000e+00  1.1862653574910244e-04 7.6333579574726349e-05 0.0000000000000000e+00  3.1891976801844769e-04 -7.2294832170512874e-04 0.0000000000000000e+00  1.0192310650647528e-04 -7.3136145241657559e-04 0.0000000000000000e+00  7.6170611331544358e-05 6.5989993668872033e-05 0.0000000000000000e+00  2.9200986997017168e-05 -2.5752904270749551e-05 0.0000000000000000e+00  5.2051048128750276e-04 -1.3943996795048276e-03 0.0000000000000000e+00  2.0419205693020682e-04 2.1092193520609836e-04 0.0000000000000000e+00  1.8650315546216975e-04 2.7211068073040645e-04 0.0000000000000000e+00  1.0237518616926659e-04 2.5250107030329110e-04 0.0000000000000000e+00  4.2182800536833407e-05 -4.2922237689946942e-05 0.0000000000000000e+00  5.1099204010100812e-05 -3.4859719195582408e-05 0.0000000000000000e+00  1.6956337545092473e-04 4.6388637938694352e-04 0.0000000000000000e+00  1.1827129271314674e-04 3.2913529541187480e-04 0.0000000000000000e+00  1.7819195764465001e-04 4.6908379652765337e-04 0.0000000000000000e+00  1.9214040685166247e-05 -1.7648435166692978e-05 0.0000000000000000e+00  5.5283970985619613e-04 -1.5873543282735603e-03 0.0000000000000000e+00  1.4328717382376926e-04 4.4285038261291772e-05 0.0000000000000000e+00  2.2920152210114750e-04 2.4592506775425135e-04 0.0000000000000000e+00  6.4273161062970360e-05 1.4785794336407731e-05 0.0000000000000000e+00  2.8856779516801102e-04 2.9728966174597855e-04 0.0000000000000000e+00  3.9063343247104811e-04 -9.7832035832078122e-04 0.0000000000000000e+00  3.0015465686246726e-04 2.4825841386480582e-04 0.0000000000000000e+00  2.7864924222464270e-04 1.7697733826931255e-04 0.0000000000000000e+00  1.5703874327242331e-04 4.3393439901940250e-04 0.0000000000000000e+00  2.6276333880595742e-04 1.5250503722066892e-04 0.0000000000000000e+00  1.8980658729492834e-04 4.2029803747328830e-04 0.0000000000000000e+00  2.2041846914985926e-04 1.7298356205272338e-04 0.0000000000000000e+00  2.0975754006342874e-04 3.3606516455916483e-04 0.0000000000000000e+00  2.5177449779110192e-04 -1.4201949185777801e-03 0.0000000000000000e+00  3.0674253941187762e-04 -5.0977151987742551e-04 0.0000000000000000e+00  1.3949989721998701e-04 1.3194468439472866e-04 0.0000000000000000e+00  3.2991437183978333e-05 -3.7442240011721386e-05 0.0000000000000000e+00  2.0817126838119415e-05 -2.4260168292436517e-05 0.0000000000000000e+00  2.3759600262469871e-04 1.3734473669483542e-04 0.0000000000000000e+00  1.7270458915013203e-04 3.2104269988997671e-04 0.0000000000000000e+00  2.4782154945374022e-04 1.6131560408290711e-04 0.0000000000000000e+00  3.0773857392182819e-04 2.2407244846816063e-04 0.0000000000000000e+00  2.7306868898808887e-04 2.3142009674245227e-04 0.0000000000000000e+00  2.9928826064400430e-04 2.7901260365656243e-04 0.0000000000000000e+00  1.6415424676195182e-04 4.1143449486369176e-04 0.0000000000000000e+00  2.3499448080284638e-04 1.7814410215377124e-04 0.0000000000000000e+00  1.9357387609543323e-04 4.3658928730798174e-04 0.0000000000000000e+00  1.6986654378127087e-04 4.5387992319367436e-04 0.0000000000000000e+00  2.9516737834656685e-04 -1.7241618908750983e-04 0.0000000000000000e+00  1.8893286797945678e-04 3.8484262561992499e-04 0.0000000000000000e+00  2.8642539776037247e-04 3.1219240300504132e-05 0.0000000000000000e+00  1.0250284050266590e-04 2.9383855092955407e-05 0.0000000000000000e+00  8.3544521582491795e-05 -6.4996479005172628e-06 0.0000000000000000e+00  1.9095273666528491e-04 -1.2295053062425043e-03 0.0000000000000000e+00  1.2037055569334328e-04 -9.6592177955611347e-04 0.0000000000000000e+00  3.0313396014823373e-04 2.6117133155482812e-04 0.0000000000000000e+00  2.9308044902879937e-04 2.7399299900190667e-04 0.0000000000000000e+00  2.4469475302356212e-04 1.4738215631079351e-04 0.0000000000000000e+00  2.9248936988359630e-04 1.1188124401051682e-04 0.0000000000000000e+00  2.6725870787642407e-04 2.0927786874972513e-04 0.0000000000000000e+00  2.3645306400412098e-04 1.4471295284910072e-04 0.0000000000000000e+00  1.6526047202300467e-04 3.8372504948699899e-04 0.0000000000000000e+00  7.9954975856444155e-05 1.1656399053149115e-04 0.0000000000000000e+00  6.5389335512468252e-05 -5.1928431510411485e-04 0.0000000000000000e+00  7.9781404852824592e-05 -2.6325989284548646e-04 0.0000000000000000e+00  9.2697687116339423e-05 1.9198655721611066e-04 0.0000000000000000e+00  2.4042706664290894e-04 1.4602481063868532e-04 0.0000000000000000e+00  1.6312760291513069e-04 2.2234493749758222e-04 0.0000000000000000e+00  4.1547449236807238e-06 -4.5545207820549279e-06 0.0000000000000000e+00  4.6286972202247699e-04 -1.2748071068038119e-03 0.0000000000000000e+00  3.7539155047344620e-05 -2.9160808960279608e-05 0.0000000000