<?xml version="1.0"?>
<VTKFile type="UnstructuredGrid"  version="0.1"  >
<UnstructuredGrid>
<Piece  NumberOfPoints="439" NumberOfCells="725">
<Points>
<DataArray  type="Float64"  NumberOfComponents="3"  format="ascii">0.5876785838992991 0.111227680019531 0  0.5935411793587508 0.1300564462088072 0  0.2489897949 0.21 0  0.2489897949 0.19 0  0.5906115573838968 0.1206424130206982 0  0.2496355385699469 0.2060260530378829 0  0.249959460510575 0.2020130349814059 0  0.2499594605105767 0.1979869650186357 0  0.24963553856995 0.1939739469621422 0  0.2540339271904604 0.2099216913949681 0  0.2590943350870241 0.2098396478837691 0  0.2641577189672015 0.2097341481990816 0  0.2692196541330598 0.2095396564543407 0  0.2742798497409111 0.2092933223174239 0  0.2793479141442439 0.2089737409191772 0  0.2844054614792362 0.2086115016869649 0  0.289452173152118 0.2081754672871319 0  0.2945002920879236 0.2076781228550618 0  0.2995391990684829 0.2071176534988962 0  0.3045825565612392 0.2064680909356502 0  0.3096253724887704 0.2058043224205228 0  0.3146417033956322 0.2050395255737863 0  0.3196749468043128 0.2042205721365426 0  0.3246738040979835 0.203352973156381 0  0.329667115517917 0.2024157286418088 0  0.3346447323017248 0.2014395834862364 0  0.3396037622672852 0.2003989913650427 0  0.3445440945436319 0.1993369950973895 0  0.3494674234272345 0.1982268570874767 0  0.3543709028504361 0.1970873814875456 0  0.3592531959342105 0.1959253211418551 0  0.364113227574417 0.194732065572952 0  0.3689637461077198 0.1935365391410722 0  0.3737840329028416 0.1923214015913958 0  0.3785914365944759 0.1911050587633477 0  0.3833823707595468 0.1898815318921778 0  0.3881639559291996 0.1886550821050511 0  0.3929397601335166 0.1874283069552305 0  0.3977150700544904 0.186198972144016 0  0.4024899025412226 0.1849723379573005 0  0.4072666706423148 0.1837419722402721 0  0.41204796894453 0.182507960094595 0  0.4168297876137347 0.1812728088274685 0  0.421615358585665 0.1800278013107679 0  0.4264050878600007 0.1787766511798317 0  0.4311971270488955 0.1775148981546053 0  0.4359971570882256 0.1762416613045874 0  0.4407993127435874 0.1749603222643713 0  0.445609586231691 0.1736660337005899 0  0.4504283233485355 0.1723646449531586 0  0.4552547386280397 0.1710526158446841 0  0.4600880768777841 0.169734006370468 0  0.4649271519052743 0.1684094841906388 0  0.4697724574277453 0.1670754457334201 0  0.474618667960546 0.165738121719927 0  0.4794666024660073 0.1643926698817304 0  0.4843165293020079 0.163036845953258 0  0.4891586314083839 0.1616752879128867 0  0.4939978383831939 0.1603036710027406 0  0.4988340937808957 0.1589196210112986 0  0.503659548726841 0.1575250827362819 0  0.508478160439593 0.1561188923606738 0  0.5132896142894743 0.1546992358433549 0  0.5180921671178006 0.1532689974138422 0  0.5228856875198915 0.1518283783861978 0  0.5276702423756292 0.1503766297801948 0  0.5324435698650674 0.1489164987661903 0  0.5372131656161835 0.1474498780570945 0  0.5419709616982542 0.1459856947913699 0  0.5467081053199029 0.1445233875375771 0  0.551442922763555 0.1430527215913406 0  0.5561669877580104 0.1415942303848279 0  0.5608728008661623 0.1401306243850177 0  0.5655719505002607 0.1386775432418697 0  0.5702505257129151 0.1372349824284667 0  0.5749258013206533 0.1357904068095124 0  0.5795886971645985 0.1343588938687793 0  0.5842406490058181 0.1329253379989767 0  0.5888929248541561 0.1314925451056369 0  0.5830155745819697 0.1126790852246354 0  0.5783454375594806 0.1141270414191888 0  0.5736738796021384 0.1155682515344173 0  0.5690032428133336 0.1170125101272659 0  0.5643242118967691 0.1184587035952895 0  0.5596499521541746 0.1198986986670821 0  0.5549680784666198 0.1213420743977755 0  0.5502768138827404 0.1227818750589318 0  0.5455856271511678 0.1242146308966616 0  0.5408803306138749 0.1256448840851117 0  0.5361714710999923 0.127062857516613 0  0.5314502845144085 0.1284848812526939 0  0.5267092123229196 0.1298964477964098 0  0.5219680362607918 0.1312909401188578 0  0.5172140890748359 0.1326876458841823 0  0.5124438867617392 0.1340710151707916 0  0.5076715067458721 0.1354432839085366 0  0.502885243372079 0.1368152858025001 0  0.4980881718865023 0.1381733940802775 0  0.4932892891327735 0.1395278242315757 0  0.488475570419405 0.1408808919717274 0  0.4836566814018294 0.1422225637151811 0  0.4788384201297895 0.1435675459225847 0  0.4740079911488715 0.1449104241442887 0  0.4691802082705684 0.1462449724133826 0  0.4643578818757646 0.1475845463151487 0  0.4595303536023007 0.1489214076722328 0  0.4547164301290455 0.1502499724692139 0  0.4499062055397476 0.151582859222516 0  0.4451029440346308 0.1529039006052582 0  0.4403149736270817 0.1542125592288112 0  0.4355354504032623 0.1555202586733281 0  0.4307642333670361 0.156811052142964 0  0.4260000218171593 0.1580917246843226 0  0.421239964851799 0.1593608201654959 0  0.4164856334399208 0.1606169012964537 0  0.4117328000983113 0.1618679814327853 0  0.4069823351329611 0.1631078711423198 0  0.4022335076592561 0.1643433494969944 0  0.397483276145773 0.1655735354237148 0  0.3927305046506264 0.1667989164102397 0  0.3879760540991965 0.1680200349113461 0  0.3832181053944827 0.1692361067674461 0  0.3784598070387122 0.1704473340183044 0  0.3736917458945293 0.1716508202049688 0  0.3689232051592577 0.1728437004131732 0  0.3641460295625873 0.1740312709737721 0  0.3593639182244209 0.1752020426019467 0  0.3545780132070869 0.1763628016815397 0  0.3497884621968104 0.1775004622744784 0  0.3450124265126194 0.1786183362751857 0  0.3402245742650221 0.1797008467686077 0  0.3354542285638292 0.1807415584946705 0  0.33066410984172 0.1817448162392866 0  0.3258803132447372 0.1826815714295781 0  0.3211036347471959 0.1836020335724694 0  0.3163162696298839 0.1844462827911771 0  0.3115547096994777 0.1852371289674345 0  0.3067655309837811 0.1859715421591233 0  0.3019793341888291 0.1866260175642501 0  0.2971828518020049 0.187235492729713 0  0.2923781548613992 0.1877701894401373 0  0.2875908046621543 0.1882548124041278 0  0.2827718197396036 0.1886755767333534 0  0.2779714116968793 0.1890323224903453 0  0.2731463330745624 0.1893209084923308 0  0.2683338961109587 0.1895512093272678 0  0.2635039178989267 0.1897408894879702 0  0.2586696631539983 0.1898670824910786 0  0.2538329552458556 0.1899217462895145 0  0.5891470978840471 0.1159350060085799 0  0.5920772148277086 0.1253520752219731 0  0.2589906721417752 0.2004934606618478 0  0.5367207374443351 0.137182180914984 0  0.560638105568309 0.1298134936438839 0  0.2775032959427892 0.1999650064218851 0  0.5084230488057755 0.1455569370164308 0  0.5227746259832053 0.1413035367895694 0  0.2944005077714782 0.1970003266032051 0  0.5742521597393495 0.1252057057971074 0  0.3102843899272816 0.1956314217531898 0  0.3367387999167331 0.1916562445619171 0  0.4939954095005352 0.1497199521807988 0  0.3545159641273199 0.1867537697322851 0  0.4795036002845794 0.1538042474564886 0  0.3695802831102702 0.18306561341065 0  0.3880780900937986 0.1783422723546719 0  0.4645271945606634 0.1575841716600828 0  0.4501737393143863 0.1620058405966804 0  0.4020360582018747 0.1748563327540288 0  0.4166623850590855 0.1709687370692419 0  0.4351613693848299 0.1660645244495454 0  0.3200351377349374 0.1940788999081501 0  0.551304424474207 0.1326963393515753 0  0.4248436141139645 0.1686670293916466 0  0.3462029207885333 0.1888640744371591 0  0.3799042058079951 0.1805906535742003 0  0.2860559188287934 0.1985438053524154 0  0.5817371429606378 0.1215727336816855 0  0.2680652648658025 0.2013355778302321 0  0.4580104700100427 0.1622108199491292 0  0.4870423246591069 0.1541508662405908 0  0.5015138120238589 0.1500235370814857 0  0.3946605284733697 0.1743249693235726 0  0.4725231922449287 0.1582067103874081 0  0.5159138301772739 0.1458024091765767 0  0.4435557428226564 0.1661569471336501 0  0.5302384407369324 0.1414929799959935 0  0.4089404174575746 0.1706425454306494 0  0.3612224498001031 0.182794538969658 0  0.3030027370480811 0.1943999438521646 0  0.5666415943676618 0.1256870236183315 0  0.5428890218699407 0.1323307831783078 0  0.3284222525906884 0.1954344047082246 0  0.5428793159352191 0.1392767146199213 0  0.329163332178097 0.1884112716871088 0  0.5305908854609216 0.1350344500278015 0  0.5163050996916853 0.1392983852489458 0  0.501937568904775 0.1434866377016805 0  0.5705252280955353 0.1308168129174223 0  0.3016061007395648 0.2007569422087484 0  0.4729992954254542 0.1516494526196616 0  0.4874948502984744 0.1475968451782267 0  0.3940754034712859 0.1808088003704412 0  0.3605306050109056 0.1893016422928457 0  0.4542284785089212 0.1568377643127024 0  0.4440627376265025 0.1596244527068353 0  0.408380965558209 0.1771267419884263 0  0.2557410947694351 0.196067553080614 0  0.2550523924988148 0.2034291894711806 0  0.4323768782209098 0.1707470207007301 0  0.37243368997246 0.1784214119345847 0  0.3393025167964849 0.1861765175018895 0  0.2809980672671228 0.1949451534258959 0  0.2908597894943421 0.1941220328208801 0  0.422622100521164 0.1735071764949664 0  0.3486171222694343 0.1840654975727126 0  0.3821709017856204 0.1757636590424302 0  0.3158304518634634 0.1908678627570363 0  0.5559797388420179 0.1351823315515869 0  0.553986463008282 0.1278488831169174 0  0.316682078973639 0.1985597031937619 0  0.2708802486129259 0.1954801530800341 0  0.5800451367445244 0.1287729452036385 0  0.4300791527467086 0.1627115591399818 0  0.420212745199951 0.1657574205301108 0  0.340782473759023 0.1948460815446257 0  0.2812218102864271 0.2036754573863239 0  0.2918647666572912 0.2027613777009525 0  0.3745873718370253 0.1864793207947348 0  0.3504234238596164 0.1930575321181477 0  0.3841836572639612 0.184693381758966 0  0.2646865880647723 0.1959705742081046 0  0.5864575281757427 0.1260991027678037 0  0.5248527992448216 0.1362635565694148 0  0.5105364012243208 0.1404946913404679 0  0.3074917230057627 0.2004444396946614 0  0.4961396636895227 0.1446452660345056 0  0.5651662406309288 0.1329458988966495 0  0.4816737590516956 0.1487264827086078 0  0.4672140197903861 0.1527443839655863 0  0.3663344255739407 0.18837979447
[...]
<PointData  Vectors="d"> 
<DataArray  type="Float64"  Name="d"  NumberOfComponents="3" format="ascii">-1.2321416100700783e-02 -7.8772319980469005e-02 0.0000000000000000e+00  -6.4588206412491958e-03 -7.9943553791192792e-02 0.0000000000000000e+00  0.0000000000000000e+00 0.0000000000000000e+00 0.0000000000000000e+00  0.0000000000000000e+00 0.0000000000000000e+00 0.0000000000000000e+00  -9.3884426161033735e-03 -7.9357586979301897e-02 0.0000000000000000e+00  0.0000000000000000e+00 0.0000000000000000e+00 0.0000000000000000e+00  0.0000000000000000e+00 0.0000000000000000e+00 0.0000000000000000e+00  0.0000000000000000e+00 0.0000000000000000e+00 0.0000000000000000e+00  0.0000000000000000e+00 0.0000000000000000e+00 0.0000000000000000e+00  1.0032658483137770e-04 -7.8308605031895376e-05 0.0000000000000000e+00  2.1692877576989198e-04 -1.6035211623088023e-04 0.0000000000000000e+00  3.3650695030944125e-04 -2.6585180091829008e-04 0.0000000000000000e+00  4.5463641052977588e-04 -4.6034354565926229e-04 0.0000000000000000e+00  5.7102631275403228e-04 -7.0667768257618498e-04 0.0000000000000000e+00  6.9528501046847095e-04 -1.0262590808227709e-03 0.0000000000000000e+00  8.0902663984248804e-04 -1.3884983130349957e-03 0.0000000000000000e+00  9.1193260710134691e-04 -1.8245327128681087e-03 0.0000000000000000e+00  1.0162458372713562e-03 -2.3218771449381947e-03 0.0000000000000000e+00  1.1113471122120809e-03 -2.8823465011038924e-03 0.0000000000000000e+00  1.2108988993395158e-03 -3.5319090643498802e-03 0.0000000000000000e+00  1.3099091212523816e-03 -4.1956775794771183e-03 0.0000000000000000e+00  1.3824343224955575e-03 -4.9604744262137677e-03 0.0000000000000000e+00  1.4718720255578425e-03 -5.7794278634573492e-03 0.0000000000000000e+00  1.5269236136102348e-03 -6.6470268436189537e-03 0.0000000000000000e+00  1.5764293279254302e-03 -7.5842713581911496e-03 0.0000000000000000e+00  1.6102404061039746e-03 -8.5604165137635243e-03 0.0000000000000000e+00  1.6254646660567305e-03 -9.6010086349572459e-03 0.0000000000000000e+00  1.6219912367742653e-03 -1.0663004902610363e-02 0.0000000000000000e+00  1.6015144147586702e-03 -1.1773142912523231e-02 0.0000000000000000e+00  1.5611881323416132e-03 -1.2912618512454411e-02 0.0000000000000000e+00  1.4996755104980180e-03 -1.4074678858144941e-02 0.0000000000000000e+00  1.4159014450859883e-03 -1.5267934427047929e-02 0.0000000000000000e+00  1.3226142727701552e-03 -1.6463460858927713e-02 0.0000000000000000e+00  1.1990953622628652e-03 -1.7678598408604158e-02 0.0000000000000000e+00  1.0626933482882801e-03 -1.8894941236652380e-02 0.0000000000000000e+00  9.0982180773473630e-04 -2.0118468107822293e-02 0.0000000000000000e+00  7.4760127176569651e-04 -2.1344917894948801e-02 0.0000000000000000e+00  5.7959977045343280e-04 -2.2571693044769563e-02 0.0000000000000000e+00  4.1110398581998501e-04 -2.3801027855983956e-02 0.0000000000000000e+00  2.4213076692418517e-04 -2.5027662042699607e-02 0.0000000000000000e+00  7.5093162403896328e-05 -2.6258027759727895e-02 0.0000000000000000e+00  -8.7414241000970157e-05 -2.7492039905405080e-02 0.0000000000000000e+00  -2.4940127741704079e-04 -2.8727191172531530e-02 0.0000000000000000e+00  -4.0763601109848629e-04 -2.9972198689232125e-02 0.0000000000000000e+00  -5.6171244239118794e-04 -3.1223348820168206e-02 0.0000000000000000e+00  -7.1347895912951575e-04 -3.2485101845394715e-02 0.0000000000000000e+00  -8.5725462545168003e-04 -3.3758338695412622e-02 0.0000000000000000e+00  -9.9890467574545840e-04 -3.5039677735628612e-02 0.0000000000000000e+00  -1.1324368933057034e-03 -3.6333966299409902e-02 0.0000000000000000e+00  -1.2575054821090889e-03 -3.7635355046841422e-02 0.0000000000000000e+00  -1.3748959082467286e-03 -3.8947384155316025e-02 0.0000000000000000e+00  -1.4853633641319021e-03 -4.0265993629531996e-02 0.0000000000000000e+00  -1.5900940422923042e-03 -4.1590515809361177e-02 0.0000000000000000e+00  -1.6885942254545128e-03 -4.2924554266579838e-02 0.0000000000000000e+00  -1.7861893983207823e-03 -4.4261878280072907e-02 0.0000000000000000e+00  -1.8820605985059990e-03 -4.5607330118269652e-02 0.0000000000000000e+00  -1.9759394681683196e-03 -4.6963154046741978e-02 0.0000000000000000e+00  -2.0776430674226110e-03 -4.8324712087113295e-02 0.0000000000000000e+00  -2.1822417982671422e-03 -4.9696328997259391e-02 0.0000000000000000e+00  -2.2897921061936399e-03 -5.1080378988701387e-02 0.0000000000000000e+00  -2.4081428659079897e-03 -5.2474917263717988e-02 0.0000000000000000e+00  -2.5333368587944784e-03 -5.3881107639326152e-02 0.0000000000000000e+00  -2.6656887145299606e-03 -5.5300764156645116e-02 0.0000000000000000e+00  -2.8069415918409620e-03 -5.6731002586157923e-02 0.0000000000000000e+00  -2.9572268954090731e-03 -5.8171621613802064e-02 0.0000000000000000e+00  -3.1164777453102288e-03 -5.9623370219805245e-02 0.0000000000000000e+00  -3.2869559615313253e-03 -6.1083501233809713e-02 0.0000000000000000e+00  -3.4611659160533477e-03 -6.2550121942905518e-02 0.0000000000000000e+00  -3.6471755395989969e-03 -6.4014305208630051e-02 0.0000000000000000e+00  -3.8538376235879562e-03 -6.5476612462423006e-02 0.0000000000000000e+00  -4.0628258855905739e-03 -6.6947278408659286e-02 0.0000000000000000e+00  -4.2825665967782074e-03 -6.8405769615172182e-02 0.0000000000000000e+00  -4.5205591942860911e-03 -6.9869375614982271e-02 0.0000000000000000e+00  -4.7652152658507830e-03 -7.1322456758130218e-02 0.0000000000000000e+00  -5.0304457588307861e-03 -7.2765017571533364e-02 0.0000000000000000e+00  -5.2989758567304115e-03 -7.4209593190487561e-02 0.0000000000000000e+00  -5.5798857184355911e-03 -7.5641106131220770e-02 0.0000000000000000e+00  -5.8717395828626001e-03 -7.7074662001023309e-02 0.0000000000000000e+00  -6.1632694401844365e-03 -7.8507454894363143e-02 0.0000000000000000e+00  -1.2040619712413492e-02 -7.7320914775364513e-02 0.0000000000000000e+00  -1.1766951029277375e-02 -7.5872958580811167e-02 0.0000000000000000e+00  -1.1494703280980944e-02 -7.4431748465582717e-02 0.0000000000000000e+00  -1.1221534364139148e-02 -7.2987489872734040e-02 0.0000000000000000e+00  -1.0956759575082371e-02 -7.1541296404710561e-02 0.0000000000000000e+00  -1.0687213612057005e-02 -7.0101301332917920e-02 0.0000000000000000e+00  -1.0425281593998558e-02 -6.8657925602224473e-02 0.0000000000000000e+00  -1.0172740472248315e-02 -6.7218124941068172e-02 0.0000000000000000e+00  -9.9201214981899603e-03 -6.5785369103338459e-02 0.0000000000000000e+00  -9.6816123298289550e-03 -6.4355115914888364e-02 0.0000000000000000e+00  -9.4466661381121166e-03 -6.2937142483386915e-02 0.0000000000000000e+00  -9.2240470180962562e-03 -6.1515118747306162e-02 0.0000000000000000e+00  -9.0213135039765493e-03 -6.0103552203590198e-02 0.0000000000000000e+00  -8.8186838604711257e-03 -5.8709059881142181e-02 0.0000000000000000e+00  -8.6288253408268283e-03 -5.7312354115817594e-02 0.0000000000000000e+00  -8.4552219482851767e-03 -5.5928984829208363e-02 0.0000000000000000e+00  -8.2837962585498009e-03 -5.4556716091463446e-02 0.0000000000000000e+00  -8.1262539267435829e-03 -5.3184714197499823e-02 0.0000000000000000e+00  -7.9795197067149860e-03 -5.1826605919722518e-02 0.0000000000000000e+00  -7.8345967548069610e-03 -5.0472175768424284e-02 0.0000000000000000e+00  -7.7045097625669775e-03 -4.9119108028272608e-02 0.0000000000000000e+00  -7.5795930745236675e-03 -4.7777436284818883e-02 0.0000000000000000e+00  -7.4540486409448636e-03 -4.6432454077415260e-02 0.0000000000000000e+00  -7.3406719162330738e-03 -4.5089575855711245e-02 0.0000000000000000e+00  -7.2246490889281648e-03 -4.3755027586617402e-02 0.0000000000000000e+00  -7.1031697781038005e-03 -4.2415453684851417e-02 0.0000000000000000e+00  -6.9868923459547412e-03 -4.1078592327767241e-02 0.0000000000000000e+00  -6.8570101135895780e-03 -3.9750027530785999e-02 0.0000000000000000e+00  -6.7234289972625998e-03 -3.8417140777484024e-02 0.0000000000000000e+00  -6.5828847967501422e-03 -3.7096099394741740e-02 0.0000000000000000e+00  -6.4270494986899919e-03 -3.5787440771188755e-02 0.0000000000000000e+00  -6.2627670168843297e-03 -3.4479741326672003e-02 0.0000000000000000e+00  -6.0901783474936397e-03 -3.3188947857035973e-02 0.0000000000000000e+00  -5.9105841917537092e-03 -3.1908275315677387e-02 0.0000000000000000e+00  -5.7268354514873904e-03 -3.0639179834504045e-02 0.0000000000000000e+00  -5.5373611577274910e-03 -2.9383098703546284e-02 0.0000000000000000e+00  -5.3463887936944362e-03 -2.8132018567214680e-02 0.0000000000000000e+00  -5.1530480533981977e-03 -2.6892128857680327e-02 0.0000000000000000e+00  -4.9580698214435641e-03 -2.5656650503005599e-02 0.0000000000000000e+00  -4.7644956292747570e-03 -2.4426464576285278e-02 0.0000000000000000e+00  -4.5734614187637364e-03 -2.3201083589760429e-02 0.0000000000000000e+00  -4.3841062645582204e-03 -2.1979965088653755e-02 0.0000000000000000e+00  -4.1982492636255418e-03 -2.0763893232554013e-02 0.0000000000000000e+00  -4.0127419137698716e-03 -1.9552665981695545e-02 0.0000000000000000e+00  -3.8369973522965548e-03 -1.8349179795031222e-02 0.0000000000000000e+00  -3.6617323819195355e-03 -1.7156299586826757e-02 0.0000000000000000e+00  -3.4951022729211106e-03 -1.5968729026227809e-02 0.0000000000000000e+00  -3.3334079054406283e-03 -1.4797957398053252e-02 0.0000000000000000e+00  -3.1755072171239969e-03 -1.3637198318460197e-02 0.0000000000000000e+00  -3.0212525217786913e-03 -1.2499537725521707e-02 0.0000000000000000e+00  -2.8534825003116208e-03 -1.1381663724814325e-02 0.0000000000000000e+00  -2.6975290422697131e-03 -1.0299153231392303e-02 0.0000000000000000e+00  -2.5240690378243733e-03 -9.2584415053295656e-03 0.0000000000000000e+00  -2.3703820542950544e-03 -8.2551837607132989e-03 0.0000000000000000e+00  -2.2103729456375756e-03 -7.3184285704219823e-03 0.0000000000000000e+00  -2.0432457375211951e-03 -6.3979664275305680e-03 0.0000000000000000e+00  -1.8868051491751170e-03 -5.5537172088228571e-03 0.0000000000000000e+00  -1.7045593739233175e-03 -4.7628710325655927e-03 0.0000000000000000e+00  -1.5499323839771235e-03 -4.0284578408767069e-03 0.0000000000000000e+00  -1.3923234732905977e-03 -3.3739824357498756e-03 0.0000000000000000e+00  -1.2450001544764004e-03 -2.7645072702870408e-03 0.0000000000000000e+00  -1.1058913894437775e-03 -2.2298105598626567e-03 0.0000000000000000e+00  -9.4943588303324363e-04 -1.7451875958721887e-03 0.0000000000000000e+00  -8.2461509992596822e-04 -1.3244232666465765e-03 0.0000000000000000e+00  -6.8121743699234272e-04 -9.6767750965478269e-04 0.0000000000000000e+00  -5.6249035366190739e-04 -6.7909150766915080e-04 0.0000000000000000e+00  -4.3112161162737545e-04 -4.4879067273235004e-04 0.0000000000000000e+00  -3.1729411802089555e-04 -2.5911051202983715e-04 0.0000000000000000e+00  -2.0774315731100939e-04 -1.3291750892135683e-04 0.0000000000000000e+00  -1.0064535980235539e-04 -7.8253710485591527e-05 0.0000000000000000e+00  -1.0852902115952778e-02 -7.9064993991398394e-02 0.0000000000000000e+00  -7.9227851722917190e-03 -7.9647924777999743e-02 0.0000000000000000e+00  1.7245610125942873e-05 -5.8928680992597920e-05 0.0000000000000000e+00  -6.4254969409721025e-03 -6.2817819084985016e-02 0.0000000000000000e+00  -7.6016839085071147e-03 -7.0156964937014801e-02 0.0000000000000000e+00  5.1903230986760319e-05 -8.2918552030762280e-04 0.0000000000000000e+00  -5.4265345711214654e-03 -5.4345405632661048e-02 0.0000000000000000e+00  -5.9063745105326177e-03 -5.8598805859527391e-02 0.0000000000000000e+00  -1.1038743428626869e-04 -2.2908642373335756e-03 0.0000000000000000e+00  -8.5259233991430063e-03 -7.4337274303227549e-02 0.0000000000000000e+00  -1.2844972964388569e-04 -4.3390368277080446e-03 0.0000000000000000e+00  -2.6137562512195940e-04 -9.1732166814796380e-03 0.0000000000000000e+00  -5.0227567595107518e-03 -5.0182390468291455e-02 0.0000000000000000e+00  -7.6565344358456668e-04 -1.3246230267775770e-02 0.0000000000000000e+00  -4.6831488586132697e-03 -4.6098095192596340e-02 0.0000000000000000e+00  -1.1570882802849616e-03 -1.6948624284718900e-02 0.0000000000000000e+00  -1.8101674164509496e-03 -2.1657727645410952e-02 0.0000000000000000e+00  -4.4585604886100945e-03 -4.1957500765586554e-02 0.0000000000000000e+00  -3.9839923698101179e-03 -3.7994159403229262e-02 0.0000000000000000e+00  -2.3174331999583960e-03 -2.5241324596895657e-02 0.0000000000000000e+00  -2.8887066848712036e-03 -2.9031262930863805e-02 0.0000000000000000e+00  -3.5406084796213398e-03 -3.3921237855131729e-02 0.0000000000000000e+00  -2.1213729073279010e-04 -5.9299843064897929e-03 0.0000000000000000e+00  -7.1009296338781632e-03 -6.7294776433782372e-02 0.0000000000000000e+00  -3.2231005747491502e-03 -3.1181875429177431e-02 0.0000000000000000e+00  -5.6307383801412563e-04 -1.1287020742278331e-02 0.0000000000000000e+00  -1.4684287578955234e-03 -1.9560441605251604e-02 0.0000000000000000e+00  -1.2418863416284008e-05 -1.4977392182027546e-03 0.0000000000000000e+00  -9.3852382174817849e-03 -7.6672182253188864e-02 0.0000000000000000e+00  7.5948719939811284e-05 -3.3954781649698872e-04 0.0000000000000000e+00  -3.5629702325852635e-03 -4.0039543379671118e-02 0.0000000000000000e+00  -4.1939498172384607e-03 -4.8099497088218375e-02 0.0000000000000000e+00  -4.5538795693391672e-03 -5.2226826247326101e-02 0.0000000000000000e+00  -2.6434375953079468e-03 -2.3424667347623922e-02 0.0000000000000000e+00  -3.8816651145608797e-03 -4.4043652941396963e-02 0.0000000000000000e+00  -4.9852785327717851e-03 -5.6447954152241867e-02 0.0000000000000000e+00  -3.1862803031092422e-03 -3.6093416195149851e-02 0.0000000000000000e+00  -5.4920850899521957e-03 -6.0757383332826299e-02 0.0000000000000000e+00  -3.1949657279568755e-03 -2.7107091240548279e-02 0.0000000000000000e+00  -1.4748763292322400e-03 -1.4955097701533889e-02 0.0000000000000000e+00  -3.6892061381494138e-04 -3.3496928190222849e-03 0.0000000000000000e+00  -8.6393771041610151e-03 -7.2062613052818872e-02 0.0000000000000000e+00  -7.5708340491153839e-03 -6.4797695295458896e-02 0.0000000000000000e+00  2.2947937600399670e-04 -7.4371168180160912e-03 0.0000000000000000e+00  -5.5385861145269208e-03 -6.4563606949555055e-02 0.0000000000000000e+00  -1.0713949059018867e-03 -7.7484067434402367e-03 0.0000000000000000e+00  -7.3301997628899872e-03 -6.1090731636609566e-02 0.0000000000000000e+00  -6.7845684152799419e-03 -5.6826796415459971e-02 0.0000000000000000e+00  -6.3206820853470161e-03 -5.2638543962729295e-02 0.0000000000000000e+00  -6.9463027731737738e-03 -7.3058005418166413e-02 0.0000000000000000e+00  4.2500247461013137e-04 -3.1178761268453982e-03 0.0000000000000000e+00  -5.5961213309568911e-03 -4.4475729044742389e-02 0.0000000000000000e+00  -5.9319835747926822e-03 -4.8528336486179581e-02 0.0000000000000000e+00  -1.0380032004770751e-03 -2.3066017965155401e-02 0.0000000000000000e+00  2.3838278493796205e-05 -1.4573176042749360e-02 0.0000000000000000e+00  -5.1544023367932025e-03 -3.9287417351696864e-02 0.0000000000000000e+00  -4.8698448961777621e-03 -3.6500728957565336e-02 0.0000000000000000e+00  -1.5638582304130105e-03 -2.6748076347172720e-02 0.0000000000000000e+00  -4.5205210761932034e-05 -1.8283945115472179e-05 0.0000000000000000e+00  3.7656467875054882e-05 -1.3453527930855287e-05 0.0000000000000000e+00  -2.4262694255592116e-03 -3.3026737063425342e-02 0.0000000000000000e+00  -2.2025116359500048e-03 -1.7804830301270596e-02 0.0000000000000000e+00  -1.3233197899456487e-03 -9.8702746920994629e-03 0.0000000000000000e+00  -3.0210085186049748e-04 -1.1016387681541556e-03 0.0000000000000000e+00  -4.0884924964705561e-04 -1.9596000440481186e-03 0.0000000000000000e+00  -2.0484330608252156e-03 -3.0446031310987991e-02 0.0000000000000000e+00  -1.5450534634785696e-03 -1.1981294621475101e-02 0.0000000000000000e+00  -2.5979138866489169e-03 -2.0283133151805723e-02 0.0000000000000000e+00  -8.0191667489275622e-04 -5.2915958063336280e-03 0.0000000000000000e+00  -6.1752622633233344e-03 -6.8599317708312124e-02 0.0000000000000000e+00  -8.4549246936949044e-03 -6.8227309244220297e-02 0.0000000000000000e+00  4.4257539032634092e-04 -5.3082525487072527e-03 0.0000000000000000e+00  -2.0846480783626357e-04 -4.8949125254961576e-04 0.0000000000000000e+00  -7.2563008958362431e-03 -7.5949842899443842e-02 0.0000000000000000e+00  -4.5888038975624183e-03 -3.2753586815269617e-02 0.0000000000000000e+00  -4.1169052078477457e-03 -3.0118277563795398e-02 0.0000000000000000e+00  5.2652267567066566e-04 -9.9479684844665552e-03 0.0000000000000000e+00  3.5331761033372498e-04 -1.0987843949417525e-03 0.0000000000000000e+00  4.5706334341892992e-04 -2.0195740061430298e-03 0.0000000000000000e+00  -1.8402077346806265e-04 -1.8055533250120506e-02 0.0000000000000000e+00  5.0177496972978884e-04 -1.2117809200482799e-02 0.0000000000000000e+00  -3.4463156526845604e-04 -2.0481959559669992e-02 0.0000000000000000e+00  -1.2789848073315846e-04 -2.3840009053285811e-04 0.0000000000000000e+00  -7.8672361905466129e-03 -7.7942439591114410e-02 0.0000000000000000e+00  -7.2444618007926967e-03 -5.9380953335672428e-02 0.0000000000000000e+00  -6.7294427044518176e-03 -5.5149818564617509e-02 0.0000000000000000e+00  4.9939744549697357e-04 -3.9023636925937734e-03 0.0000000000000000e+00  -6.2947631224036151e-03 -5.0999243870580725e-02 0.0000000000000000e+00  -6.4940629425061635e-03 -7.1400904490626707e-02 0.0000000000000000e+00  -5.9292506433785298e-03 -4.6918027196475386e-02 0.0000000000000000e+00  -5.6011777392400595e-03 -4.2895862925403039e-02 0.0000000000000000e+00  4.2479211870568981e-06 -1.5987660387719677e-02 0.0000000000000000e+00  -5.4255622859878663e-03 -4.0829401350724631e-02 0.0000000000000000e+00  -1.1270504536834728e-03 -2.4525340542036946e-02 0.0000000000000000e+00  -4.8238901940967126e-03 -3.4955943814432046e-02 0.0000000000000000e+00  -1.6429359779038372e-03 -2.8215753411383548e-02 0.0000000000000000e+00  -9.8775535245615304e-03 -7.5179810467934691e-02 0.0000000000000000e+00  -5.6130067798559483e-03 -6.6285771105014615e-02 0.0000000000000000e+00  -1.0644928812621535e-03 -6.6548267691020095e-03 0.0000000000000000e+00  2.6517761620726741e-04 -5.3980365910909385e-04 0.0000000000000000e+00  1.3684635749849029e-04 -1.8602767263662680e-04 0.0000000000000000e+00  -2.8086360207901597e-03 -3.8830420083030802e-02 0.0000000000000000e+00  -3.9344392999390038e-03 -2.8202010397824301e-02 0.0000000000000000e+00  -3.1322309264601232e-03 -4.2816245758683265e-02 0.0000000000000000e+00  -4.1911444732202988e-03 -5.5157249563787591e-02 0.0000000000000000e+00  -3.4578917159389282e-03 -4.6848429084688586e-02 0.0000000000000000e+00  -3.7913416083946725e-03 -5.0955455051715462e-02 0.0000000000000000e+00  -3.2322289289365967e-03 -2.4608904210858224e-02 0.0000000000000000e+00  -2.4615355003445075e-03 -3.4936003137028389e-02 0.0000000000000000e+00  -2.1333031855036446e-03 -1.6031096712859471e-02 0.0000000000000000e+00  -3.0609035006467066e-03 -2.2173838669308242e-02 0.0000000000000000e+00  -4.9851886394141915e-03 -6.2270204407301001e-02 0.0000000000000000e+00  -1.9109243353698853e-03 -1.3772103327393778e-02 0.0000000000000000e+00  -4.8567504242951060e-03 -5.9372446782428444e-02 0.0000000000000000e+00  -7.3992102065291616e-04 -3.9688629709754173e-03 0.0000000000000000e+00  -6.0518555813756801e-04 -2.7512539934221665e-03 0.0000000000000000e+00  -9.5379859827267634e-03 -7.3192724454589256e-02 0.0000000000000000e+00  -9.0929514351735224e-03 -7.0524919536122485e-02 0.0000000000000000e+00  -4.3276185218132368e-03 -5.3734843047077915e-02 0.0000000000000000e+00  -3.9488194651136942e-03 -4.9569403738822460e-02 0.0000000000000000e+00  -3.2499693117938556e-03 -4.1427058461244802e-02 0.0000000000000000e+00  -4.7083907199793459e-03 -5.7964324080209559e-02 0.0000000000000000e+00  -3.6286736996963970e-03 -4.5488820000709786e-02 0.0000000000000000e+00  -2.8809619759843047e-03 -3.7466458320882780e-02 0.0000000000000000e+00  -3.3997389892317974e-03 -2.5808207869085102e-02 0.0000000000000000e+00  5.8302482640652624e-04 -6.5861899021094853e-03 0.0000000000000000e+00  -8.3269726864892129e-03 -6.6059717900777387e-02 0.0000000000000000e+00  -7.8558427345526479e-03 -6.3331459153283323e-02 0.0000000000000000e+00  5.3320508861749