<?xml version="1.0"?>
<VTKFile type="UnstructuredGrid"  version="0.1"  >
<UnstructuredGrid>
<Piece  NumberOfPoints="439" NumberOfCells="725">
<Points>
<DataArray  type="Float64"  NumberOfComponents="3"  format="ascii">0.5864097290469312 0.102317213924531 0  0.59223224875595 0.121696073711129 0  0.2489897949 0.21 0  0.2489897949 0.19 0  0.5893200689273591 0.1120047484392274 0  0.2496355385699469 0.2060260530378829 0  0.249959460510575 0.2020130349814059 0  0.2499594605105767 0.1979869650186357 0  0.24963553856995 0.1939739469621422 0  0.2541088745681956 0.2098351906594335 0  0.2592339135384443 0.209653716028833 0  0.2643516086645908 0.2094287199642078 0  0.2694519405800382 0.2090776952027907 0  0.27453455300025 0.2086635043712906 0  0.2796125297943581 0.2081602158967832 0  0.2846671851480955 0.2076161243756705 0  0.2896974370114897 0.2070004084863409 0  0.2947160839385675 0.20633215281545 0  0.2997142878650115 0.2056156861455812 0  0.3046969499892639 0.2048404531455204 0  0.309672426528719 0.2040542516235165 0  0.3146116017493413 0.2032125566063903 0  0.3195465624936558 0.2023364590622303 0  0.3244544749895433 0.2014387058986803 0  0.3293483579582805 0.2005039643744302 0  0.3342296963555768 0.1995497053000335 0  0.3390946726744058 0.1985632772323719 0  0.3439520053042824 0.1975628452025223 0  0.3488021640281342 0.1965332667551728 0  0.353647442052011 0.195483427744566 0  0.3584910748189566 0.1944100002480266 0  0.3633491705454638 0.1932928354209016 0  0.3682128152855472 0.1921721341979996 0  0.3730801403664422 0.1910099642307378 0  0.3779489336487549 0.1898275151691848 0  0.3828257324537344 0.1886092057345655 0  0.387703467449314 0.1873624328721443 0  0.3925784163072298 0.1860855287286806 0  0.3974597118787384 0.1847586698719544 0  0.4023419795867468 0.1834261178186639 0  0.4072093280016257 0.1820461420284087 0  0.4120755316043758 0.1806298472686816 0  0.4169402087583308 0.1792060622271552 0  0.4217886401975883 0.1777430439524967 0  0.4266386002736143 0.1762632519144516 0  0.4314702363996625 0.1747617408315535 0  0.4362963292547573 0.1732367481440578 0  0.4411065458413452 0.171697253128563 0  0.4459001847537785 0.1701363892644397 0  0.4506832638901609 0.1685568810536717 0  0.4554519506337915 0.1669592368880449 0  0.4602031773308938 0.1653395392603638 0  0.4649459143746971 0.1637043371405223 0  0.4696735249094959 0.1620532133933431 0  0.4743916043161067 0.1603844438847619 0  0.4791003573306725 0.1587104285972988 0  0.4837954617216276 0.1570303185009456 0  0.4884894460257819 0.1553509882695549 0  0.4931762082306753 0.153679165238008 0  0.4978527277138848 0.1520150279289728 0  0.5025298764389606 0.1503663563155131 0  0.5072032299258125 0.1487340743112238 0  0.511871059336001 0.1471185134545107 0  0.5165393016610772 0.1455208088964728 0  0.5212077375216631 0.1439410680501015 0  0.5258750668807456 0.1423799185203571 0  0.5305464264528404 0.1408375930393382 0  0.5352166452755805 0.1393073826947589 0  0.5399006800010006 0.1377884779235024 0  0.5446043274879946 0.136288311983298 0  0.5493039639818804 0.1347994508856175 0  0.5540225766515419 0.1333161366220479 0  0.5587532561323905 0.1318531220155718 0  0.5634992117327405 0.1303904509878004 0  0.5682691726968162 0.128935559974601 0  0.5730420800336966 0.1274851205253453 0  0.5778326643754494 0.1260332326273497 0  0.5826314655101212 0.1245879302505689 0  0.5874310427948506 0.1231401516310483 0  0.5816274857434532 0.103758482646897 0  0.57684814117021 0.1052055126888424 0  0.5720657647644357 0.1066560996792535 0  0.5672826894550033 0.1081060462976002 0  0.5625044521702456 0.1095609214751772 0  0.5577186811803023 0.1110196901764578 0  0.5529391321440056 0.1124853215955801 0  0.5481628594296512 0.1139630313354621 0  0.5433846224832463 0.1154504024257502 0  0.5386159208721722 0.1169531123338543 0  0.5338444074726256 0.1184717085396015 0  0.529086325708085 0.1200028441731793 0  0.5243404056488267 0.121560011025155 0  0.519585111160237 0.1231332809660668 0  0.5148443515664837 0.1247206942168814 0  0.5101115281078418 0.126335021111058 0  0.5053744959562786 0.1279626230185879 0  0.5006525527113929 0.129604270514364 0  0.4959338968272559 0.1312681058408388 0  0.4912160581069733 0.1329370050666559 0  0.4865145228536486 0.134615752804896 0  0.4818144432928239 0.1363045201849742 0  0.4771186054891174 0.1379867942218864 0  0.4724370946387889 0.1396688806659774 0  0.4677538355428483 0.1413424314832894 0  0.4630724338174792 0.1429993327627811 0  0.4583982187047104 0.1446448006992837 0  0.4537122851257569 0.146262842690941 0  0.44902818359434 0.1478686854567918 0  0.4443267059364958 0.1494507855504838 0  0.4396149326172488 0.1510023068231326 0  0.4348985840374155 0.1525419444796252 0  0.4301643076877036 0.1540560209523112 0  0.425416762068397 0.1555572132373723 0  0.4206627722093193 0.1570379943990262 0  0.4158973860081984 0.1584920770489343 0  0.4111371285823053 0.1599327008118972 0  0.4063674012462704 0.1613474946865781 0  0.4016015339451779 0.1627381640723689 0  0.3968396166374685 0.1641022193556204 0  0.3920787291945145 0.1654374450673363 0  0.3873128236244349 0.1667508607302083 0  0.3825506508736919 0.1680321191742094 0  0.3778068990334354 0.1692918430785095 0  0.373059342428282 0.1705162925687817 0  0.3683298773070149 0.1717054966974549 0  0.3635962102142974 0.1728666916548899 0  0.3588727378280908 0.1739868955864589 0  0.3541440034054979 0.1750806716416285 0  0.3494128238483426 0.1761359810150642 0  0.3446914469957142 0.1771629964290806 0  0.3399495496702628 0.1781585907886102 0  0.3352085338560105 0.1791159162022236 0  0.3304475366925982 0.180055561968578 0  0.3256756024079643 0.1809545977186423 0  0.3209036387194971 0.1818441319999965 0  0.3161116480845012 0.18269431356827 0  0.3113254417191098 0.183511934075188 0  0.3065174675879292 0.1843086316796401 0  0.3017055676947685 0.1850598829019079 0  0.2968876739250973 0.1857877881183638 0  0.2920658416315375 0.1864676789084964 0  0.2872625182597515 0.1871121875832976 0  0.2824410294020709 0.1877030448012819 0  0.2776471569811314 0.1882409528962349 0  0.272842736809611 0.1887014489206146 0  0.2680688680757013 0.1890971928279555 0  0.2632873216755222 0.1894369785959349 0  0.2585125413214728 0.1896861089937981 0  0.2537488992270923 0.1898266540690425 0  0.5878636002294838 0.1071595095677682 0  0.5907766911773776 0.1168477984187838 0  0.2589896053010489 0.2003554547532022 0  0.5344604766752812 0.1289280359403362 0  0.5585359042421875 0.1213263561487337 0  0.2774996518191147 0.1992139421254223 0  0.5065618195918556 0.1381450337464232 0  0.5206506916650808 0.1333581271127185 0  0.2943353249817262 0.1956251285906211 0  0.5724846559486798 0.1166126833563256 0  0.3101785800674927 0.1938554585698922 0  0.3363679544448485 0.1898775543416726 0  0.4924873360069913 0.1430814458816776 0  0.3539291770366844 0.1853158937383636 0  0.4784234656752341 0.1481133805554952 0  0.3689017415827252 0.1818586057043816 0  0.3875428041337217 0.1771000293459458 0  0.4638830586531173 0.1529041353992876 0  0.4498936123048499 0.1582086780165878 0  0.4016773400490657 0.1733142424935348 0  0.4164568511583951 0.1688717455233868 0  0.4350296767684843 0.1630758557447058 0  0.3198596174138782 0.1922087210234259 0  0.5490647384250721 0.1242845037601525 0  0.4246897437119248 0.1661896777553701 0  0.3457137642513269 0.1872580067718495 0  0.3792776704068315 0.1794132587154421 0  0.2860238156126245 0.1974666906817436 0  0.5802003237743716 0.1129005001900072 0  0.2680825671767549 0.2009289831123247 0  0.4577026721676185 0.1579473355116777 0  0.4858881476288895 0.1479567798420898 0  0.4999509091638956 0.142962714955314 0  0.3941693352693676 0.1729659573113453 0  0.47181867975853 0.152995593800413 0  0.5140144842820914 0.1381029353368461 0  0.4434850512192704 0.1627289787992317 0  0.5280916002802111 0.1333980422544261 0  0.4085961033544371 0.1688482533856102 0  0.3606006736143308 0.1815112479556323 0  0.3028855105171253 0.1927795606808282 0  0.5647044945924884 0.1170896396079082 0  0.5405934468478857 0.1239113916732703 0  0.328154167835611 0.1935559041079662 0  0.5406632356467151 0.1310203003076799 0  0.3289045820784614 0.1866103927122539 0  0.5282847657246701 0.1268051308129178 0  0.5141318348462482 0.1315159882707663 0  0.5000170004089183 0.136380582614114 0  0.5685964448883043 0.1223678265181854 0  0.3016162458634901 0.199173229130935 0  0.4718733582489175 0.1464148851495373 0  0.4859315904980604 0.1413744595682162 0  0.3936725618872103 0.1794680721360907 0  0.359846711919718 0.1879120908802272 0  0.4536351527747796 0.1528128449519883 0  0.4436658779280593 0.1561712660712203 0  0.4081967987600601 0.1753809994321313 0  0.2557063091545358 0.1959915309262744 0  0.2550710508874964 0.203368868689915 0  0.4324080196088817 0.1679102300735767 0  0.3717760430670694 0.177267093796706 0  0.3389463985767288 0.1845072364994125 0  0.2808594393490333 0.1940522714226413 0  0.2907135521568744 0.1928660052239854 0  0.4226011613736191 0.171151289209474 0  0.3481516018764513 0.1825735250156106 0  0.3815464326533109 0.1745917709037768 0  0.3156573264580135 0.1890482377624158 0  0.5537922086895072 0.126822968526517 0  0.5518136700422216 0.1192786361932311 0  0.3165671541176579 0.1966975320771493 0  0.2707602856198714 0.1949643406199202 0  0.5783709526587708 0.1202974055909066 0  0.4297475119595926 0.159975313037437 0  0.4198819934186084 0.1634842672424955 0  0.3403153046058557 0.1930777931106129 0  0.281328042849171 0.2027878170948545 0  0.2919485233748761 0.2014836505475381 0  0.3739116485197722 0.1852502223645264 0  0.3498160232182008 0.191455263253927 0  0.3836295319638211 0.1834605131893096 0  0.2646012919758574 0.1956591042255393 0  0.5849891269987022 0.117577517240483 0  0.5225756091654489 0.1281705685328004 0  0.5084342626346351 0.1329444533099556 0  0.3074725090678883 0.198722261855826 0  0.4943259794412145 0.1378689425713756 0  0.5631162643940707 0.1245433755612445 0  0.4802496177750685 0.1428954899225622 0  0.4662334767293121 0.1479015698429414 0  0.3656240175087544 0.1870697856798235 0
[...]
<PointData  Vectors="d"> 
<DataArray  type="Float64"  Name="d"  NumberOfComponents="3" format="ascii">-1.3590270953068605e-02 -8.7682786075469046e-02 0.0000000000000000e+00  -7.7677512440499901e-03 -8.8303926288870946e-02 0.0000000000000000e+00  0.0000000000000000e+00 0.0000000000000000e+00 0.0000000000000000e+00  0.0000000000000000e+00 0.0000000000000000e+00 0.0000000000000000e+00  -1.0679931072641050e-02 -8.7995251560772689e-02 0.0000000000000000e+00  0.0000000000000000e+00 0.0000000000000000e+00 0.0000000000000000e+00  0.0000000000000000e+00 0.0000000000000000e+00 0.0000000000000000e+00  0.0000000000000000e+00 0.0000000000000000e+00 0.0000000000000000e+00  0.0000000000000000e+00 0.0000000000000000e+00 0.0000000000000000e+00  1.7527396256660147e-04 -1.6480934056643253e-04 0.0000000000000000e+00  3.5650722719011372e-04 -3.4628397116697439e-04 0.0000000000000000e+00  5.3039664769874407e-04 -5.7128003579216011e-04 0.0000000000000000e+00  6.8692285750825610e-04 -9.2230479720928891e-04 0.0000000000000000e+00  8.2572957209291404e-04 -1.3364956287094752e-03 0.0000000000000000e+00  9.5990066058263175e-04 -1.8397841032167779e-03 0.0000000000000000e+00  1.0707503087017550e-03 -2.3838756243294225e-03 0.0000000000000000e+00  1.1571964664730883e-03 -2.9995915136591250e-03 0.0000000000000000e+00  1.2320376879152402e-03 -3.6678471845499818e-03 0.0000000000000000e+00  1.2864359087406412e-03 -4.3843138544188733e-03 0.0000000000000000e+00  1.3252923273641686e-03 -5.1595468544797032e-03 0.0000000000000000e+00  1.3569631612009943e-03 -5.9457483764834588e-03 0.0000000000000000e+00  1.3523326762047204e-03 -6.7874433936097609e-03 0.0000000000000000e+00  1.3434877149008733e-03 -7.6635409377696882e-03 0.0000000000000000e+00  1.3075945051701078e-03 -8.5612941013196078e-03 0.0000000000000000e+00  1.2576717682889122e-03 -9.4960356255697261e-03 0.0000000000000000e+00  1.1952044599559159e-03 -1.0450294699966438e-02 0.0000000000000000e+00  1.1163750731772813e-03 -1.1436722767628107e-02 0.0000000000000000e+00  1.0299019974247324e-03 -1.2437154797477576e-02 0.0000000000000000e+00  9.3625501565837866e-04 -1.3466733244827197e-02 0.0000000000000000e+00  8.3772733391652390e-04 -1.4516572255434007e-02 0.0000000000000000e+00  7.3755439524415096e-04 -1.5589999751973400e-02 0.0000000000000000e+00  6.5184441613278855e-04 -1.6707164579098245e-02 0.0000000000000000e+00  5.7168345059757186e-04 -1.7827865802000381e-02 0.0000000000000000e+00  4.9520282586353211e-04 -1.8990035769262125e-02 0.0000000000000000e+00  4.2019040256730032e-04 -2.0172484830815192e-02 0.0000000000000000e+00  3.5318350192230485e-04 -2.1390794265434544e-02 0.0000000000000000e+00  2.8711279188015049e-04 -2.2637567127855623e-02 0.0000000000000000e+00  2.1825594416660711e-04 -2.3914471271319463e-02 0.0000000000000000e+00  1.5574581006795883e-04 -2.5241330128045587e-02 0.0000000000000000e+00  9.4207812448422992e-05 -2.6573882181336259e-02 0.0000000000000000e+00  1.7750521714747204e-05 -2.7953857971591285e-02 0.0000000000000000e+00  -5.9851581155119830e-05 -2.9370152731318447e-02 0.0000000000000000e+00  -1.3898013282095538e-04 -3.0793937772844889e-02 0.0000000000000000e+00  -2.3435439917523986e-04 -3.2256956047503296e-02 0.0000000000000000e+00  -3.2820002877754269e-04 -3.3736748085548392e-02 0.0000000000000000e+00  -4.4036960836246590e-04 -3.5238259168446522e-02 0.0000000000000000e+00  -5.5808245892005344e-04 -3.6763251855942244e-02 0.0000000000000000e+00  -6.9167157798760682e-04 -3.8302746871436935e-02 0.0000000000000000e+00  -8.4183837121824866e-04 -3.9863610735560114e-02 0.0000000000000000e+00  -1.0025649404836877e-03 -4.1443118946328260e-02 0.0000000000000000e+00  -1.1776839024949437e-03 -4.3040763111955253e-02 0.0000000000000000e+00  -1.3702629110222359e-03 -4.4660460739636164e-02 0.0000000000000000e+00  -1.5713315728695105e-03 -4.6295662859477706e-02 0.0000000000000000e+00  -1.7875267437039220e-03 -4.7946786606656820e-02 0.0000000000000000e+00  -2.0132530427601422e-03 -4.9615556115238046e-02 0.0000000000000000e+00  -2.2483057338408639e-03 -5.1289571402701177e-02 0.0000000000000000e+00  -2.4970070485485223e-03 -5.2969681499054372e-02 0.0000000000000000e+00  -2.7468284500246232e-03 -5.4649011730445077e-02 0.0000000000000000e+00  -3.0038719507858437e-03 -5.6320834761991977e-02 0.0000000000000000e+00  -3.2711581732046010e-03 -5.7984972071027159e-02 0.0000000000000000e+00  -3.5378151537884500e-03 -5.9633643684486766e-02 0.0000000000000000e+00  -3.8082673725750118e-03 -6.1265925688776132e-02 0.0000000000000000e+00  -4.0842436680033197e-03 -6.2881486545489348e-02 0.0000000000000000e+00  -4.3598070485643360e-03 -6.4479191103527317e-02 0.0000000000000000e+00  -4.6351768936375793e-03 -6.6058931949898356e-02 0.0000000000000000e+00  -4.9116532401938286e-03 -6.7620081479642935e-02 0.0000000000000000e+00  -5.1840993737582164e-03 -6.9162406960661907e-02 0.0000000000000000e+00  -5.4576862566563366e-03 -7.0692617305241068e-02 0.0000000000000000e+00  -5.7174572368526265e-03 -7.2211522076497489e-02 0.0000000000000000e+00  -5.9576154554962764e-03 -7.3711688016702026e-02 0.0000000000000000e+00  -6.2017846672651105e-03 -7.5200549114382356e-02 0.0000000000000000e+00  -6.4269777032468127e-03 -7.6683863377952174e-02 0.0000000000000000e+00  -6.6401039280579036e-03 -7.8146877984428209e-02 0.0000000000000000e+00  -6.8379540333709521e-03 -7.9609549012199521e-02 0.0000000000000000e+00  -7.0117987749296531e-03 -8.1064440025399101e-02 0.0000000000000000e+00  -7.1826971436871482e-03 -8.2514879474654704e-02 0.0000000000000000e+00  -7.3359185075845892e-03 -8.3966767372650367e-02 0.0000000000000000e+00  -7.4809230785593825e-03 -8.5412069749431038e-02 0.0000000000000000e+00  -7.6251514994899417e-03 -8.6859848368951706e-02 0.0000000000000000e+00  -1.3428708550929978e-02 -8.6241517353102995e-02 0.0000000000000000e+00  -1.3264247418548033e-02 -8.4794487311157588e-02 0.0000000000000000e+00  -1.3102818118683652e-02 -8.3343900320746497e-02 0.0000000000000000e+00  -1.2942087722469521e-02 -8.1893953702399699e-02 0.0000000000000000e+00  -1.2776519301605845e-02 -8.0439078524822835e-02 0.0000000000000000e+00  -1.2618484585929259e-02 -7.8980309823542288e-02 0.0000000000000000e+00  -1.2454227916612701e-02 -7.7514678404419876e-02 0.0000000000000000e+00  -1.2286694925337622e-02 -7.6036968664537880e-02 0.0000000000000000e+00  -1.2121126166111516e-02 -7.4549597574249810e-02 0.0000000000000000e+00  -1.1946022071531583e-02 -7.3046887666145713e-02 0.0000000000000000e+00  -1.1773729765478745e-02 -7.1528291460398408e-02 0.0000000000000000e+00  -1.1588005824419724e-02 -6.9997155826820756e-02 0.0000000000000000e+00  -1.1390120178069438e-02 -6.8439988974845059e-02 0.0000000000000000e+00  -1.1201608961025978e-02 -6.6866719033933111e-02 0.0000000000000000e+00  -1.0998562849179071e-02 -6.5279305783118524e-02 0.0000000000000000e+00  -1.0787580602182696e-02 -6.3664978888941876e-02 0.0000000000000000e+00  -1.0580807048143398e-02 -6.2037376981412137e-02 0.0000000000000000e+00  -1.0358944587429709e-02 -6.0395729485635902e-02 0.0000000000000000e+00  -1.0133794765961390e-02 -5.8731894159161205e-02 0.0000000000000000e+00  -9.9078277806071442e-03 -5.7062994933344033e-02 0.0000000000000000e+00  -9.6655573283234066e-03 -5.5384247195104021e-02 0.0000000000000000e+00  -9.4218311835291627e-03 -5.3695479815025760e-02 0.0000000000000000e+00  -9.1738632816169563e-03 -5.2013205778113546e-02 0.0000000000000000e+00  -8.9115684263156615e-03 -5.0331119334022609e-02 0.0000000000000000e+00  -8.6510218166483011e-03 -4.8657568516710603e-02 0.0000000000000000e+00  -8.3886178363891985e-03 -4.7000667237219011e-02 0.0000000000000000e+00  -8.1190272435450999e-03 -4.5355199300716333e-02 0.0000000000000000e+00  -7.8611551168781633e-03 -4.3737157309058826e-02 0.0000000000000000e+00  -7.6014509426701737e-03 -4.2131314543208231e-02 0.0000000000000000e+00  -7.3591228948851088e-03 -4.0549214449516188e-02 0.0000000000000000e+00  -7.1270905085229425e-03 -3.8997693176867396e-02 0.0000000000000000e+00  -6.8996333827310635e-03 -3.7458055520374844e-02 0.0000000000000000e+00  -6.6901040268260870e-03 -3.5943979047688819e-02 0.0000000000000000e+00  -6.4938439405160349e-03 -3.4442786762627693e-02 0.0000000000000000e+00  -6.3040280939671194e-03 -3.2962005600973766e-02 0.0000000000000000e+00  -6.1256085894499318e-03 -3.1507922951065623e-02 0.0000000000000000e+00  -5.9420603097004830e-03 -3.0067299188102730e-02 0.0000000000000000e+00  -5.7679819400889400e-03 -2.8652505313422044e-02 0.0000000000000000e+00  -5.5900435355217522e-03 -2.7261835927631081e-02 0.0000000000000000e+00  -5.4081551375792158e-03 -2.5897780644379732e-02 0.0000000000000000e+00  -5.2252368748757112e-03 -2.4562554932663783e-02 0.0000000000000000e+00  -5.0473367393197950e-03 -2.3249139269791611e-02 0.0000000000000000e+00  -4.8657037844162896e-03 -2.1967880825790747e-02 0.0000000000000000e+00  -4.6656499190466756e-03 -2.0708156921490448e-02 0.0000000000000000e+00  -4.4694008185438942e-03 -1.9483707431218283e-02 0.0000000000000000e+00  -4.2550602341622657e-03 -1.8294503302544989e-02 0.0000000000000000e+00  -4.0449216212110756e-03 -1.7133308345110058e-02 0.0000000000000000e+00  -3.8245883017707393e-03 -1.6013104413541042e-02 0.0000000000000000e+00  -3.6095170187129635e-03 -1.4919328358371370e-02 0.0000000000000000e+00  -3.3968908702464839e-03 -1.3864018984935896e-02 0.0000000000000000e+00  -3.1744620172167760e-03 -1.2837003570919461e-02 0.0000000000000000e+00  -2.9725536370291007e-03 -1.1841409211389823e-02 0.0000000000000000e+00  -2.7697637456430952e-03 -1.0884083797776476e-02 0.0000000000000000e+00  -2.5869552034168660e-03 -9.9444380314218355e-03 0.0000000000000000e+00  -2.4150837824103953e-03 -9.0454022813577662e-03 0.0000000000000000e+00  -2.2432417652200405e-03 -8.1558680000034939e-03 0.0000000000000000e+00  -2.0914266945577858e-03 -7.3056864317299552e-03 0.0000000000000000e+00  -1.9338273542912373e-03 -6.4880659248120328e-03 0.0000000000000000e+00  -1.7979957798289127e-03 -5.6913683203599083e-03 0.0000000000000000e+00  -1.6660899673511731e-03 -4.9401170980921403e-03 0.0000000000000000e+00  -1.5401780313840075e-03 -4.2122118816362193e-03 0.0000000000000000e+00  -1.4182046193053945e-03 -3.5323210915035683e-03 0.0000000000000000e+00  -1.2777222854360095e-03 -2.8878124167023697e-03 0.0000000000000000e+00  -1.1554054374586533e-03 -2.2969551987181420e-03 0.0000000000000000e+00  -1.0054721527402075e-03 -1.7590471037651481e-03 0.0000000000000000e+00  -8.6608661861333446e-04 -1.2985510793853165e-03 0.0000000000000000e+00  -6.9614964688473899e-04 -9.0280717204460409e-04 0.0000000000000000e+00  -5.3389034142541753e-04 -5.6302140406503732e-04 0.0000000000000000e+00  -3.6486498983648828e-04 -3.1389100620194131e-04 0.0000000000000000e+00  -1.8470137856571435e-04 -1.7334593095757851e-04 0.0000000000000000e+00  -1.2136399770516046e-02 -8.7840490432210108e-02 0.0000000000000000e+00  -9.2233088226226483e-03 -8.8152201581189013e-02 0.0000000000000000e+00  1.6178769399606523e-05 -1.9693458963812767e-04 0.0000000000000000e+00  -8.6857577100260784e-03 -7.1071964059632814e-02 0.0000000000000000e+00  -9.7038852346285707e-03 -7.8644102432164950e-02 0.0000000000000000e+00  4.8259107312294975e-05 -1.5802498167703633e-03 0.0000000000000000e+00  -7.2877637850413124e-03 -6.1757308902668645e-02 0.0000000000000000e+00  -8.0303088286570977e-03 -6.6544215536378251e-02 0.0000000000000000e+00  -1.7557022403831893e-04 -3.6660622499175696e-03 0.0000000000000000e+00  -1.0293427189812679e-02 -8.2930296744009327e-02 0.0000000000000000e+00  -2.3425958943272383e-04 -6.1150000110056354e-03 0.0000000000000000e+00  -6.3222109700657213e-04 -1.0951906901724213e-02 0.0000000000000000e+00  -6.5308302530546099e-03 -5.6820896767412650e-02 0.0000000000000000e+00  -1.3524405342200520e-03 -1.4684106261697331e-02 0.0000000000000000e+00  -5.7632834679585236e-03 -5.1788962093589741e-02 0.0000000000000000e+00  -1.8356298078299989e-03 -1.8155631990987235e-02 0.0000000000000000e+00  -2.3454533765278427e-03 -2.2899970654137129e-02 0.0000000000000000e+00  -5.1026963961561915e-03 -4.6637537026381751e-02 0.0000000000000000e+00  -4.2641193793465830e-03 -4.1791321983321826e-02 0.0000000000000000e+00  -2.6761513527673547e-03 -2.6783414857389574e-02 0.0000000000000000e+00  -3.0942405855615969e-03 -3.1128254476718922e-02 0.0000000000000000e+00  -3.6723010959669061e-03 -3.6909906559971339e-02 0.0000000000000000e+00  -3.8765761179198000e-04 -7.8001631912139671e-03 0.0000000000000000e+00  -9.3406156830131166e-03 -7.5706612025205122e-02 0.0000000000000000e+00  -3.3769709767888143e-03 -3.3659227065453948e-02 0.0000000000000000e+00  -1.0522303752204614e-03 -1.2893088407587910e-02 0.0000000000000000e+00  -2.0949641590591460e-03 -2.0737836464009892e-02 0.0000000000000000e+00  -4.4522079585243714e-05 -2.5748538888745822e-03 0.0000000000000000e+00  -1.0922057403748074e-02 -8.5344415744867216e-02 0.0000000000000000e+00  9.3251030892218693e-05 -7.4614253440443833e-04 0.0000000000000000e+00  -3.8707680750094302e-03 -4.4303027817122607e-02 0.0000000000000000e+00  -5.3481268474558086e-03 -5.4293583486719366e-02 0.0000000000000000e+00  -6.1167824293024853e-03 -5.9287648373497780e-02 0.0000000000000000e+00  -3.1346307993099700e-03 -2.4783679359851173e-02 0.0000000000000000e+00  -4.5861776009595099e-03 -4.9254769528392077e-02 0.0000000000000000e+00  -6.8846244279542820e-03 -6.4147427991972483e-02 0.0000000000000000e+00  -3.2569719064952877e-03 -3.9521384529568243e-02 0.0000000000000000e+00  -7.6389255466734985e-03 -6.8852321074393680e-02 0.0000000000000000e+00  -3.5392798310944352e-03 -2.8901383285587553e-02 0.0000000000000000e+00  -2.0966525150045135e-03 -1.6238388715559621e-02 0.0000000000000000e+00  -4.8614714477073439e-04 -4.9700759903586996e-03 0.0000000000000000e+00  -1.0576476879334459e-02 -8.0659997063242214e-02 0.0000000000000000e+00  -9.8664090711704580e-03 -7.3217086800496364e-02 0.0000000000000000e+00  -3.8605379073369666e-05 -9.3156174182744775e-03 0.0000000000000000e+00  -7.7546664030308477e-03 -7.2820021261796500e-02 0.0000000000000000e+00  -1.3301450055374499e-03 -9.5492857182951172e-03 0.0000000000000000e+00  -9.6363194991414564e-03 -6.9320050851493203e-02 0.0000000000000000e+00  -8.9578332607169256e-03 -6.4609193393639477e-02 0.0000000000000000e+00  -8.2412505812037330e-03 -5.9744599050295735e-02 0.0000000000000000e+00  -8.8750859804047448e-03 -8.1506991817403299e-02 0.0000000000000000e+00  4.3514759853549009e-04 -4.7015892046587491e-03 0.0000000000000000e+00  -6.7220585074936169e-03 -4.9710296514866754e-02 0.0000000000000000e+00  -7.4952433752067098e-03 -5.4750722096190065e-02 0.0000000000000000e+00  -1.4408447845526981e-03 -2.4406746199505915e-02 0.0000000000000000e+00  -6.6005481269375862e-04 -1.5962727455367816e-02 0.0000000000000000e+00  -5.7477280709348488e-03 -4.3312336712410957e-02 0.0000000000000000e+00  -5.2667045946209025e-03 -3.9953915593180303e-02 0.0000000000000000e+00  -1.7480250285618882e-03 -2.8493818903467728e-02 0.0000000000000000e+00  -7.9990825661137372e-05 -9.4306099455149534e-05 0.0000000000000000e+00  5.6314856556572927e-05 -7.3774309196501778e-05 0.0000000000000000e+00  -2.3951280375872543e-03 -3.5863527690578739e-02 0.0000000000000000e+00  -2.8601585413405846e-03 -1.8959148439149316e-02 0.0000000000000000e+00  -1.6794380097018419e-03 -1.1539555694576495e-02 0.0000000000000000e+00  -4.4072876995000744e-04 -1.9945207714088145e-03 0.0000000000000000e+00  -5.5508658711473312e-04 -3.2156276409428162e-03 0.0000000000000000e+00  -2.0693722083701270e-03 -3.2801918596480434e-02 0.0000000000000000e+00  -2.0105738564615383e-03 -1.3473267178577168e-02 0.0000000000000000e+00  -3.2223830189584252e-03 -2.1455021290459158e-02 0.0000000000000000e+00  -9.7504208034257327e-04 -7.1112208009541282e-03 0.0000000000000000e+00  -8.3627924158340347e-03 -7.6958680733382065e-02 0.0000000000000000e+00  -1.0627717659755349e-02 -7.6797556167906567e-02 0.0000000000000000e+00  3.2765053434520217e-04 -7.1704236653198474e-03 0.0000000000000000e+00  -3.2842780089075791e-04 -1.0053037126635136e-03 0.0000000000000000e+00  -8.9304849815898014e-03 -8.4425382512175698e-02 0.0000000000000000e+00  -4.9204446846784454e-03 -3.5489832917814358e-02 0.0000000000000000e+00  -4.4476569891903723e-03 -3.2391430851410691e-02 0.0000000000000000e+00  5.9353522503383787e-05 -1.1716256918479348e-02 0.0000000000000000e+00  4.5955017307759634e-04 -1.9864246864110912e-03 0.0000000000000000e+00  5.4082006100392784e-04 -3.2973011595573707e-03 0.0000000000000000e+00  -8.5974409072115321e-04 -1.9284631680328956e-02 0.0000000000000000e+00  -1.0562567168580780e-04 -1.3720078064703572e-02 0.0000000000000000e+00  -8.9875686540856253e-04 -2.1714828129326316e-02 0.0000000000000000e+00  -2.1319456964812654e-04 -5.4987007309817339e-04 0.0000000000000000e+00  -9.3356373675871004e-03 -8.6464025118435123e-02 0.0000000000000000e+00  -9.5216518801654361e-03 -6.7473941372286836e-02 0.0000000000000000e+00  -8.8315812941374902e-03 -6.2700056595129824e-02 0.0000000000000000e+00  4.8018350762260028e-04 -5.6245415314291570e-03 0.0000000000000000e+00  -8.1084473707117959e-03 -5.7775567333710753e-02 0.0000000000000000e+00  -8.5440391793642160e-03 -7.9803427826031656e-02 0.0000000000000000e+00  -7.3533919200056645e-03 -5.2749019982520989e-02 0.0000000000000000e+00  -6.5817208003140565e-03 -4.7738677048047948e-02 0.0000000000000000e+00  -7.0616014399924325e-04 -1.7297669184036534e-02 0.0000000000000000e+00  -6.1877794949481459e-03 -4.5186669991900276e-02 0.0000000000000000e+00  -1.4341918116411627e-03 -2.5995270065823781e-02 0.0000000000000000e+00  -5.1884737998058100e-03 -3.8101345646923315e-02 0.0000000000000000e+00  -1.7420340952260477e-03 -3.0186623470495132e-02 0.0000000000000000e+00  -1.1516176278340725e-02 -8.3908368523678833e-02 0.0000000000000000e+00  -7.8354120320810183e-03 -7.4582793579158646e-02 0.0000000000000000e+00  -1.2767289074759752e-03 -8.4817192468479938e-03 0.0000000000000000e+00  3.6946025042017576e-04 -1.0933978508701372e-03 0.0000000000000000e+00  1.9829311520230198e-04 -4.4921277534345296e-04 0.0000000000000000e+00  -2.8919150156868061e-03 -4.2848199768838982e-02 0.0000000000000000e+00  -4.3205158671848600e-03 -3.0160089366101778e-02 0.0000000000000000e+00  -3.5600268724611393e-03 -4.7753874621421021e-02 0.0000000000000000e+00  -5.8854341844920754e-03 -6.2691862835189904e-02 0.0000000000000000e+00  -4.3343309099389722e-03 -5.2771131066448970e-02 0.0000000000000000e+00  -5.1038976406967296e-03 -5.7790372116555765e-02 0.0000000000000000e+00  -3.7125212834738779e-03 -2.6083778739341801e-02 0.0000000000000000e+00  -2.3998409003281426e-03 -3.8148538421997877e-02 0.0000000000000000e+00  -2.7587103204601802e-03 -1.7232181801515537e-02 0.0000000000000000e+00  -3.6359238340579717e-03 -2.3440825428269075e-02 0.0000000000000000e+00  -7.1246361554774635e-03 -7.0427268438401580e-02 0.0000000000000000e+00  -2.4499972049019558e-03 -1.5108039370618005e-02 0.0000000000000000e+00  -6.8796121666933894e-03 -6.7353299198608982e-02 0.0000000000000000e+00  -9.0046601387886089e-04 -5.6736630612486969e-03 0.0000000000000000e+00  -7.6936800324611874e-04 -4.2351592924009659e-03 0.0000000000000000e+00  -1.1346574867777034e-02 -8.1890975596981094e-02 0.0000000000000000e+00  -1.1112103860856893e-02 -7.9173439822518191e-02 0.0000000000000000e+00  -5.9554366837328296e-03 -6.1059768406729810e-02 0.0000000000000000e+00  -5.1794876778658060e-03 -5.6109937834170155e-02 0.0000000000000000e+00  -3.5894657602863864e-03 -4.6027926847741228e-02 0.0000000000000000e+00  -6.6488852343145992e-03 -6.5822462721246464e-02 0.0000000000000000e+00  -4.4135623547579914e-03 -5.1073192421285440e-02 0.0000000000000000e+00  -2.9248706194811478e-03 -4.1187731218396001e-02 0.0000000000000000e+00  -3.8346147534875385e-03 -2.7423241126048544e-02 0.0000000000000000e+00  3.7450884139596631e-04 -8.4860229503269432e-03 0.0000000000000000e+00  -1.0587639190402919e-02 -7.4587951356732018e-02 0.0000000000000000e+00  -1.0174568965128151e-02 -7.1732469460444356e-02 0.0000000000000000e+00  1.837380867