<?xml version="1.0"?>
<VTKFile type="UnstructuredGrid"  version="0.1"  >
<UnstructuredGrid>
<Piece  NumberOfPoints="439" NumberOfCells="725">
<Points>
<DataArray  type="Float64"  NumberOfComponents="3"  format="ascii">0.6001291657605369 0.1882512549301441 0  0.5999472154453241 0.2081765257075759 0  0.2489897949 0.21 0  0.2489897949 0.19 0  0.6000376371198298 0.1982146253917834 0  0.2496355385699469 0.2060260530378829 0  0.249959460510575 0.2020130349814059 0  0.2499594605105767 0.1979869650186357 0  0.24963553856995 0.1939739469621422 0  0.2539665003278399 0.2099668618745267 0  0.2589424879714594 0.2099335434756235 0  0.2639163202826486 0.2098929144606253 0  0.2688862456435678 0.2098330126565323 0  0.2738521585327955 0.2097645588963101 0  0.2788160139281598 0.209683740963477 0  0.2837760080106037 0.2095985321636862 0  0.2887318974186834 0.2095054216457837 0  0.2936855548589039 0.2094077639646399 0  0.2986365819291577 0.2093071824755935 0  0.3035852371223938 0.209204834317161 0  0.3085323331647826 0.209102608251562 0  0.3134763726420448 0.2090008080412705 0  0.3184188676187635 0.2089004416869986 0  0.3233604336052238 0.2088026585331262 0  0.3283009013412732 0.2087092777513111 0  0.3332407204623296 0.2086188995078869 0  0.3381800708341296 0.2085344777020389 0  0.3431202817081591 0.2084529141374148 0  0.3480601090870485 0.2083761729444155 0  0.353000714192525 0.2083029317163879 0  0.357942532596758 0.208232770991506 0  0.3628860041324127 0.2081655943440494 0  0.3678306654501577 0.2080995008067256 0  0.3727783282881938 0.2080369527519376 0  0.3777275833657947 0.2079747092341131 0  0.3826789931935559 0.2079136645516726 0  0.3876313613020728 0.207852657726927 0  0.3925839641389569 0.2077902977747269 0  0.397535259644666 0.2077239988695809 0  0.4024875022360156 0.2076564950628642 0  0.4074354133609895 0.2075843464717287 0  0.4123815366964276 0.2075066438206305 0  0.4173270462530196 0.2074284944246977 0  0.4222677155098742 0.2073456053276894 0  0.4272074916719132 0.2072627332546577 0  0.4321436344042122 0.2071801436374197 0  0.4370762623172308 0.2071012206542529 0  0.4420077103964565 0.2070250776685274 0  0.4469364819040447 0.2069565431934766 0  0.4518616837242115 0.2068947679101562 0  0.4567828222347134 0.2068425830829455 0  0.4617045146495317 0.2067991609341039 0  0.4666221941335604 0.2067655522960829 0  0.4715364373864278 0.2067439734778058 0  0.4764538184422971 0.2067329876723023 0  0.4813682263856779 0.2067326040346745 0  0.4862807925323153 0.2067453408649404 0  0.4911997103744167 0.2067704283633741 0  0.4961187669196773 0.206806061542307 0  0.5010397732385515 0.206854838720956 0  0.5059693403222545 0.2069167163336732 0  0.510903188087991 0.2069872962532969 0  0.5158431548103644 0.2070679234558137 0  0.5207906939755824 0.2071568298733535 0  0.5257436609602972 0.2072492770494203 0  0.5307024072560922 0.2073449213847092 0  0.5356656593774661 0.2074400758902206 0  0.5406288767346875 0.2075344901954758 0  0.5455916589741028 0.207621372226055 0  0.5505559254533468 0.2076988896460389 0  0.5555173634289906 0.2077774814640677 0  0.5604703197029847 0.2078399753625797 0  0.565422482884157 0.2078979375236582 0  0.570365102310566 0.2079495636698757 0  0.5753033954997852 0.2079895169296536 0  0.5802373558170089 0.2080311870494657 0  0.585166090100904 0.2080658340554448 0  0.5900934505580929 0.2080999102124038 0  0.5950204477053154 0.2081373181993433 0  0.5952073940638651 0.1882062432769027 0  0.5902909461250838 0.1881629667064753 0  0.5853773500387531 0.188122425598085 0  0.5804653894056487 0.1880761286935945 0  0.5755539815955188 0.1880233669600536 0  0.570637794437306 0.1879662902407268 0  0.5657160516922939 0.1878979984688944 0  0.5607919487103677 0.1878208266203892 0  0.5558544575155785 0.1877392337605626 0  0.5509109088328372 0.187648755621669 0  0.5459577835247942 0.1875581041733291 0  0.5409962215968871 0.1874612294785182 0  0.536032524477552 0.1873643774809567 0  0.5310627740446908 0.1872738063887599 0  0.5260890577053262 0.1871820164986613 0  0.521115933065616 0.1870982649330329 0  0.5161400015847443 0.1870208858660745 0  0.5111678151554675 0.1869494031310922 0  0.5061965502374476 0.1868909554968228 0  0.5012248008773879 0.1868362857538803 0  0.4962609083388836 0.1867929937637473 0  0.4912953720850152 0.1867647186050748 0  0.4863294344026312 0.1867367074066092 0  0.4813709953793341 0.1867247290196707 0  0.4764081023403618 0.1867288994817057 0  0.471443542979456 0.1867336696694449 0  0.4664837005425813 0.1867552861830125 0  0.4615204876764205 0.1867926349496747 0  0.4565579857819046 0.1868317190411121 0  0.4516016781247909 0.1868882389409108 0  0.4466457251724112 0.1869590217593101 0  0.4416901173130062 0.1870305480183869 0  0.4367417263498919 0.1871137781862197 0  0.4317969389640536 0.1871984295274757 0  0.4268574241382022 0.1872861761775806 0  0.421921298480707 0.1873719904487592 0  0.4169880882835291 0.1874557964349068 0  0.412054395858062 0.1875344530134763 0  0.4071204952589454 0.1876081831481427 0  0.4021850147095106 0.1876770239124178 0  0.3972457925129574 0.1877420398093435 0  0.3923024592141668 0.1878050906128308 0  0.3873557532482484 0.187867187257895 0  0.382408424563191 0.187928658032739 0  0.3774586853782071 0.1879923315167713 0  0.3725090983147203 0.188055909753301 0  0.367559984197127 0.1881211611609618 0  0.3626113820863144 0.1881873715630346 0  0.3576626525449238 0.1882540851271432 0  0.3527130517231512 0.1883225165979487 0  0.3477611532924648 0.1883926631002866 0  0.3428084464399729 0.1884668958933572 0  0.3378535346282642 0.1885460390734737 0  0.3328996863315666 0.1886305485756179 0  0.3279466094060506 0.1887212681140856 0  0.3229940805540891 0.1888135106404233 0  0.3180440195734624 0.1889109652823418 0  0.313094786011361 0.189010189756616 0  0.3081474776819703 0.1891109641966313 0  0.3032018833416036 0.1892127725180829 0  0.2982582537492953 0.1893146934035347 0  0.2933173175982348 0.1894152488231425 0  0.288380086677236 0.1895135466225548 0  0.2834445958305546 0.1896061746706757 0  0.2785142893625277 0.1896936124583619 0  0.2735850843991571 0.1897703528570391 0  0.2686620041774734 0.1898383154496987 0  0.2637396879537164 0.1898980269641595 0  0.2588200766499401 0.1899431709754263 0  0.2539036744199826 0.1899700876868709 0  0.6000833454970725 0.1932325023524202 0  0.5999911328219075 0.2031954560930805 0  0.2589802673405103 0.2005120106084038 0  0.5432834549278585 0.1975766690012347 0  0.5684007547568303 0.1979357930431695 0  0.2774736789721524 0.200514325064309 0  0.513873729781322 0.1969140381392055 0  0.5287601803068642 0.197190554603286 0  0.2945158971503748 0.1986864490827029 0  0.5828933554216692 0.1976320186048821 0  0.3104373520795783 0.1990334801204034 0  0.3370519613425278 0.1993803184305682 0  0.4990205445980088 0.1967118084896773 0  0.355329450415548 0.1982749827686482 0  0.4841986141290688 0.196611921370133 0  0.3707940315632406 0.1980832009158807 0  0.3899725272202601 0.1978294284543937 0  0.4690149068745892 0.1962608269434071 0  0.4542013781960398 0.1968428633809792 0  0.4044491056823783 0.1977372138182427 0  0.4196301713598535 0.1974006903784045 0  0.4387555223547859 0.1970490846943824 0  0.3202756112371999 0.1988708958090219 0  0.5585753493577054 0.1978335540036686 0  0.4281304816692532 0.1970995935150754 0  0.3468129394137157 0.1985477062144924 0  0.3814458838693754 0.1980858133132873 0  0.2860831660150308 0.1996037863166891 0  0.5912121714379929 0.1963955252219101 0  0.2680130703170976 0.2015361225596504 0  0.4616315810661613 0.1990224374120922 0  0.4912306202622553 0.1989978160360001 0  0.5060513564931175 0.1991480912024914 0  0.3973630786523583 0.1954864842150857 0  0.4764319287977852 0.1989557596989967 0  0.5209113615146822 0.1993924415323098 0  0.4468227268316393 0.1991905478198737 0  0.5357996031796467 0.1996869879442408 0  0.4121876144204798 0.1952747441677116 0  0.3627169846114667 0.1959269682837724 0  0.3033514452733538 0.1969601739952181 0  0.5754511413340636 0.1957840474311564 0  0.5506689975710323 0.1948296825198028 0  0.3282754649626563 0.2015787077469763 0  0.5485076283131245 0.201520881526688 0  0.3302009863452945 0.1948333712516351 0  0.538107744710406 0.1935808355777027 0  0.5232063775476169 0.1932901258475984 0  0.5083144276288801 0.193044450670426 0  0.5775557073676056 0.2019141673498465 0  0.3012749983644566 0.2031286786197556 0  0.4786096213044221 0.1928266746127172 0  0.493451749480296 0.1928843423384031 0  0.3952591106001259 0.2016352976649558 0  0.3606106420009544 0.2020743634284658 0  0.4593863748071536 0.1929130456514023 0  0.4489253609208947 0.1930351128526705 0  0.4100965652876548 0.2014265005033926 0  0.2557756924244237 0.1960666293735538 0  0.2550266633793605 0.2034255776449432 0  0.4349240750476179 0.2009029407867394 0  0.3746457009242895 0.1942494835987638 0  0.3406034145463168 0.1945416887644566 0  0.2812518985252966 0.1956995829485715 0  0.2912161692421492 0.1955434645995734 0  0.4248085680407447 0.201259631932133 0  0.3501498443587007 0.1943974386300023 0  0.3847904520088314 0.1939424906427876 0  0.316587632200757 0.1950966038902841 0  0.562268239146678 0.2016712948937849 0  0.5626724385501917 0.1939644149573948 0  0.3163391111752591 0.2028094025536188 0  0.2710478442629811 0.1957869599994546 0  0.5873415504092212 0.2028250132434455 0  0.4346495064096632 0.1926036328406441 0  0.4243302629582829 0.193198296688078 0  0.3403730864127715 0.2032898959871766 0  0.2809548269035992 0.2044307310816723 0  0.2915095138051204 0.2042359299306421 0  0.3748947805795932 0.2025479174189604 0  0.3500438845287118 0.2035225068720104 0  0.3846755050600805 0.2030672335662284 0  0.2647869194774715 0.196106132858362 0  0.5943449926289071 0.2021954027351859 0  0.5322669977357192 0.1929813812685283 0  0.5173646685468605 0.1927031089114382 0  0.3070983023060952 0.2034792773409916 0  0.5024817247001427 0.1924896168429164 0  0.5717548547264792 0.2023360574275971 0  0.48762660120458 0.1923696597262522 0  0.4728266446489958 0.19234941048537 0  0.3664433354212263 0.2024890056931
[...]
<PointData  Vectors="d"> 
<DataArray  type="Float64"  Name="d"  NumberOfComponents="3" format="ascii">1.2916576053703861e-04 -1.7487450698559013e-03 0.0000000000000000e+00  -5.2784554675797123e-05 -1.8234742924241752e-03 0.0000000000000000e+00  0.0000000000000000e+00 0.0000000000000000e+00 0.0000000000000000e+00  0.0000000000000000e+00 0.0000000000000000e+00 0.0000000000000000e+00  3.7637119829683074e-05 -1.7853746082166790e-03 0.0000000000000000e+00  0.0000000000000000e+00 0.0000000000000000e+00 0.0000000000000000e+00  0.0000000000000000e+00 0.0000000000000000e+00 0.0000000000000000e+00  0.0000000000000000e+00 0.0000000000000000e+00 0.0000000000000000e+00  0.0000000000000000e+00 0.0000000000000000e+00 0.0000000000000000e+00  3.2899722210725703e-05 -3.3138125473235589e-05 0.0000000000000000e+00  6.5081660205120698e-05 -6.6456524376548492e-05 0.0000000000000000e+00  9.5108265756561436e-05 -1.0708553937460086e-04 0.0000000000000000e+00  1.2122792103787830e-04 -1.6698734346764363e-04 0.0000000000000000e+00  1.4333510463852953e-04 -2.3544110369000263e-04 0.0000000000000000e+00  1.6338479438439589e-04 -3.1625903652294509e-04 0.0000000000000000e+00  1.7957317121000398e-04 -4.0146783631368787e-04 0.0000000000000000e+00  1.9165687366687854e-04 -4.9457835421636248e-04 0.0000000000000000e+00  2.0150860825162746e-04 -5.9223603536007793e-04 0.0000000000000000e+00  2.0872997288681964e-04 -6.9281752440651136e-04 0.0000000000000000e+00  2.1357946049404078e-04 -7.9516568283905106e-04 0.0000000000000000e+00  2.1686979726449925e-04 -8.9739174843791656e-04 0.0000000000000000e+00  2.1710356890814771e-04 -9.9919195872957812e-04 0.0000000000000000e+00  2.1579284000860255e-04 -1.0995583130013961e-03 0.0000000000000000e+00  2.1355312085050699e-04 -1.1973414668737970e-03 0.0000000000000000e+00  2.1021515128151385e-04 -1.2907222486889785e-03 0.0000000000000000e+00  2.0622856670878556e-04 -1.3811004921131010e-03 0.0000000000000000e+00  2.0177323290106400e-04 -1.4655222979611015e-03 0.0000000000000000e+00  1.9817840130146864e-04 -1.5470858625850703e-03 0.0000000000000000e+00  1.9420007457254286e-04 -1.6238270555844710e-03 0.0000000000000000e+00  1.9099947443054256e-04 -1.6970682836120927e-03 0.0000000000000000e+00  1.8901217304540278e-04 -1.7672290084940168e-03 0.0000000000000000e+00  1.8867800308179736e-04 -1.8344056559505273e-03 0.0000000000000000e+00  1.8953361520818485e-04 -1.9004991932743702e-03 0.0000000000000000e+00  1.9339074761506948e-04 -1.9630472480622967e-03 0.0000000000000000e+00  1.9884011960701254e-04 -2.0252907658869679e-03 0.0000000000000000e+00  2.0644424174373871e-04 -2.0863354483274792e-03 0.0000000000000000e+00  2.1500664463892482e-04 -2.1473422730729371e-03 0.0000000000000000e+00  2.2380377589366991e-04 -2.2097022252731569e-03 0.0000000000000000e+00  2.3129357599547173e-04 -2.2760011304191205e-03 0.0000000000000000e+00  2.3973046171720124e-04 -2.3435049371359766e-03 0.0000000000000000e+00  2.4383588107866882e-04 -2.4156535282711948e-03 0.0000000000000000e+00  2.4615351089665277e-04 -2.4933561793695313e-03 0.0000000000000000e+00  2.4785736186784432e-04 -2.5715055753022576e-03 0.0000000000000000e+00  2.4472091311072411e-04 -2.6543946723106495e-03 0.0000000000000000e+00  2.4069136952128089e-04 -2.7372667453421846e-03 0.0000000000000000e+00  2.3302839618719157e-04 -2.8198563625803381e-03 0.0000000000000000e+00  2.2185060355346572e-04 -2.8987793457470354e-03 0.0000000000000000e+00  2.0949297712370051e-04 -2.9749223314725032e-03 0.0000000000000000e+00  1.9445877904786119e-04 -3.0434568065232227e-03 0.0000000000000000e+00  1.7585489356697635e-04 -3.1052320898437955e-03 0.0000000000000000e+00  1.5318769842688013e-04 -3.1574169170546910e-03 0.0000000000000000e+00  1.3107440761567509e-04 -3.2008390658961089e-03 0.0000000000000000e+00  1.0494818599373300e-04 -3.2344477039170975e-03 0.0000000000000000e+00  7.5385733227991355e-05 -3.2560265221940623e-03 0.0000000000000000e+00  4.8961083430362012e-05 -3.2670123276976894e-03 0.0000000000000000e+00  1.9563321164526728e-05 -3.2673959653254959e-03 0.0000000000000000e+00  -1.1676237860896925e-05 -3.2546591350595911e-03 0.0000000000000000e+00  -3.6564101389806670e-05 -3.2295716366259248e-03 0.0000000000000000e+00  -6.1313261783679153e-05 -3.1939384576928930e-03 0.0000000000000000e+00  -8.4112648537928680e-05 -3.1451612790439894e-03 0.0000000000000000e+00  -9.8351270494708535e-05 -3.0832836663267859e-03 0.0000000000000000e+00  -1.0830921039663873e-04 -3.0127037467030560e-03 0.0000000000000000e+00  -1.1214819363963552e-04 -2.9320765441863692e-03 0.0000000000000000e+00  -1.0841473405900002e-04 -2.8431701266465213e-03 0.0000000000000000e+00  -9.9253455003503008e-05 -2.7507229505795805e-03 0.0000000000000000e+00  -8.4312864847043944e-05 -2.6550786152907810e-03 0.0000000000000000e+00  -6.4866449132438040e-05 -2.5599241097794701e-03 0.0000000000000000e+00  -4.5454797549079949e-05 -2.4655098045242053e-03 0.0000000000000000e+00  -2.6478263750286585e-05 -2.3786277739448877e-03 0.0000000000000000e+00  -6.0174901440198132e-06 -2.3011103539612144e-03 0.0000000000000000e+00  1.1614779844797834e-05 -2.2225185359322527e-03 0.0000000000000000e+00  2.0765348196055134e-05 -2.1600246374203699e-03 0.0000000000000000e+00  2.9122823708519158e-05 -2.1020624763417842e-03 0.0000000000000000e+00  2.7936544454641654e-05 -2.0504363301242726e-03 0.0000000000000000e+00  2.2424028039113644e-05 -2.0104830703464292e-03 0.0000000000000000e+00  1.2578639625136997e-05 -1.9688129505343070e-03 0.0000000000000000e+00  -2.4927821299617288e-06 -1.9341659445552899e-03 0.0000000000000000e+00  -1.8938030587685011e-05 -1.9000897875962373e-03 0.0000000000000000e+00  -3.5746589025314031e-05 -1.8626818006567401e-03 0.0000000000000000e+00  1.5119976948191260e-04 -1.7937567230972451e-03 0.0000000000000000e+00  1.7855753632593644e-04 -1.8370332935246840e-03 0.0000000000000000e+00  2.0876715563380045e-04 -1.8775744019149867e-03 0.0000000000000000e+00  2.4061222817606224e-04 -1.9238713064054450e-03 0.0000000000000000e+00  2.7301012366744235e-04 -1.9766330399464739e-03 0.0000000000000000e+00  3.0062867107470269e-04 -2.0337097592732357e-03 0.0000000000000000e+00  3.2269163167570350e-04 -2.1020015311056443e-03 0.0000000000000000e+00  3.4239435537916619e-04 -2.1791733796108163e-03 0.0000000000000000e+00  3.4870886622067265e-04 -2.2607662394374490e-03 0.0000000000000000e+00  3.4896588913358373e-04 -2.3512443783309570e-03 0.0000000000000000e+00  3.3964628668991002e-04 -2.4418958266708402e-03 0.0000000000000000e+00  3.2189006438237917e-04 -2.5387705214818170e-03 0.0000000000000000e+00  3.0199865065590247e-04 -2.6356225190433615e-03 0.0000000000000000e+00  2.7605392342793574e-04 -2.7261936112400833e-03 0.0000000000000000e+00  2.4614328966345548e-04 -2.8179835013386052e-03 0.0000000000000000e+00  2.1682435559154369e-04 -2.9017350669669792e-03 0.0000000000000000e+00  1.8469858032248574e-04 -2.9791141339255574e-03 0.0000000000000000e+00  1.5631785664495473e-04 -3.0505968689077414e-03 0.0000000000000000e+00  1.2885864423007305e-04 -3.1090445031772508e-03 0.0000000000000000e+00  1.0091498980745864e-04 -3.1637142461197307e-03 0.0000000000000000e+00  8.0828156911590566e-05 -3.2070062362526994e-03 0.0000000000000000e+00  5.9097608662090212e-05 -3.2352813949251373e-03 0.0000000000000000e+00  3.6965631896863206e-05 -3.2632925933907334e-03 0.0000000000000000e+00  2.2332314229605903e-05 -3.2752709803293405e-03 0.0000000000000000e+00  3.2449808652420077e-06 -3.2711005182942230e-03 0.0000000000000000e+00  -1.7508674412379352e-05 -3.2663303305551631e-03 0.0000000000000000e+00  -3.3545405674138242e-05 -3.2447138169874501e-03 0.0000000000000000e+00  -5.2952566214548952e-05 -3.2073650503252242e-03 0.0000000000000000e+00  -7.1648755105633920e-05 -3.1682809588879299e-03 0.0000000000000000e+00  -8.4150706589925024e-05 -3.1117610590890789e-03 0.0000000000000000e+00  -9.6297953360496399e-05 -3.0409782406898467e-03 0.0000000000000000e+00  -1.0810010714043796e-04 -2.9694519816131490e-03 0.0000000000000000e+00  -1.1268536463784366e-04 -2.8862218137803083e-03 0.0000000000000000e+00  -1.1366704485938656e-04 -2.8015704725242339e-03 0.0000000000000000e+00  -1.0937616508429193e-04 -2.7138238224193160e-03 0.0000000000000000e+00  -1.0169611694133511e-04 -2.6280095512408309e-03 0.0000000000000000e+00  -9.1100608476586789e-05 -2.5442035650931520e-03 0.0000000000000000e+00  -8.0987328297356913e-05 -2.4655469865237697e-03 0.0000000000000000e+00  -7.1082221754130298e-05 -2.3918168518572902e-03 0.0000000000000000e+00  -6.2757065537149474e-05 -2.3229760875822423e-03 0.0000000000000000e+00  -5.8173556432797313e-05 -2.2579601906564809e-03 0.0000000000000000e+00  -5.7701149587931806e-05 -2.1949093871691944e-03 0.0000000000000000e+00  -6.0601409859857538e-05 -2.1328127421050514e-03 0.0000000000000000e+00  -6.4124389291193883e-05 -2.0713419672609202e-03 0.0000000000000000e+00  -7.0057868618693652e-05 -2.0076684832287012e-03 0.0000000000000000e+00  -7.5839226456922811e-05 -1.9440902466989721e-03 0.0000000000000000e+00  -8.1147638381462778e-05 -1.8788388390381342e-03 0.0000000000000000e+00  -8.5944043547127820e-05 -1.8126284369654419e-03 0.0000000000000000e+00  -9.0867879287001793e-05 -1.7459148728567609e-03 0.0000000000000000e+00  -9.6662995437764800e-05 -1.6774834020514212e-03 0.0000000000000000e+00  -1.0475572046617245e-04 -1.6073368997134598e-03 0.0000000000000000e+00  -1.1365686731898253e-04 -1.5331041066427935e-03 0.0000000000000000e+00  -1.2476297338940174e-04 -1.4539609265263207e-03 0.0000000000000000e+00  -1.3480556444848976e-04 -1.3694514243819602e-03 0.0000000000000000e+00  -1.4407678432420588e-04 -1.2787318859143546e-03 0.0000000000000000e+00  -1.5279993062814552e-04 -1.1864893595767132e-03 0.0000000000000000e+00  -1.5905520559659339e-04 -1.0890347176581196e-03 0.0000000000000000e+00  -1.6448306204007131e-04 -9.8981024338417006e-04 0.0000000000000000e+00  -1.6798568578788134e-04 -8.8903580336870537e-04 0.0000000000000000e+00  -1.6977432051602429e-04 -7.8722748191707411e-04 0.0000000000000000e+00  -1.6959820718591935e-04 -6.8530659646531464e-04 0.0000000000000000e+00  -1.6672865260828620e-04 -5.8475117685741792e-04 0.0000000000000000e+00  -1.6015386795149587e-04 -4.8645337744525807e-04 0.0000000000000000e+00  -1.5183900897507811e-04 -3.9382532932428647e-04 0.0000000000000000e+00  -1.3833977134395626e-04 -3.0638754163819120e-04 0.0000000000000000e+00  -1.2373902906731403e-04 -2.2964714296091167e-04 0.0000000000000000e+00  -1.0301354511261708e-04 -1.6168455030136748e-04 0.0000000000000000e+00  -8.1524063231254001e-05 -1.0197303584042280e-04 0.0000000000000000e+00  -5.7329661369042268e-05 -5.6829024573631996e-05 0.0000000000000000e+00  -2.9926185675362253e-05 -2.9912313129147629e-05 0.0000000000000000e+00  8.3345497072475231e-05 -1.7674976475580480e-03 0.0000000000000000e+00  -8.8671780927346123e-06 -1.8045439068923239e-03 0.0000000000000000e+00  6.8408088610930225e-06 -4.0378734436526276e-05 0.0000000000000000e+00  1.3722054255108169e-04 -2.4233309987342724e-03 0.0000000000000000e+00  1.6096528001424571e-04 -2.0346655377291916e-03 0.0000000000000000e+00  2.2286260349965866e-05 -2.7986687788367399e-04 0.0000000000000000e+00  2.4146404424952880e-05 -2.9883045098864085e-03 0.0000000000000000e+00  7.9179813126224605e-05 -2.7117880458108227e-03 0.0000000000000000e+00  5.0019446100796086e-06 -6.0474175783578013e-04 0.0000000000000000e+00  1.1527228317676450e-04 -1.9109614954528058e-03 0.0000000000000000e+00  2.4512422652787712e-05 -9.3697846049437808e-04 0.0000000000000000e+00  5.1785800672729282e-05 -1.4491428128285033e-03 0.0000000000000000e+00  2.3783379627450481e-06 -3.1905341594129183e-03 0.0000000000000000e+00  4.7832844643631701e-05 -1.7250172314126561e-03 0.0000000000000000e+00  1.1864985876251794e-05 -3.2904212789519106e-03 0.0000000000000000e+00  5.6660172685455538e-05 -1.9310367794882152e-03 0.0000000000000000e+00  8.4269710010559585e-05 -2.1705715456891632e-03 0.0000000000000000e+00  2.9151825315803403e-05 -3.2808454822622225e-03 0.0000000000000000e+00  4.3646511843262193e-05 -3.1571366189305254e-03 0.0000000000000000e+00  9.5614280545143943e-05 -2.3604435326816243e-03 0.0000000000000000e+00  7.9079615896819879e-05 -2.5993096217012623e-03 0.0000000000000000e+00  5.3544490334839776e-05 -2.9366776102948355e-03 0.0000000000000000e+00  2.8336211529665516e-05 -1.1379884056179706e-03 0.0000000000000000e+00  1.6999524962015540e-04 -2.1575617816891328e-03 0.0000000000000000e+00  6.3766980539624755e-05 -2.7493113057486616e-03 0.0000000000000000e+00  4.6944787168283826e-05 -1.6033889649450916e-03 0.0000000000000000e+00  7.3249303484717882e-05 -2.0652818661646682e-03 0.0000000000000000e+00  1.4828322820906469e-05 -4.3775825392906040e-04 0.0000000000000000e+00  8.9790259873137108e-05 -1.8493907129642996e-03 0.0000000000000000e+00  2.3754171234914482e-05 -1.3900308707867799e-04 0.0000000000000000e+00  5.8140823533385165e-05 -3.2279259167080601e-03 0.0000000000000000e+00  -5.6542140900443211e-06 -3.2525472928089669e-03 0.0000000000000000e+00  -1.6335100080840718e-05 -3.1022721263203991e-03 0.0000000000000000e+00  5.9112583680656107e-05 -2.2631524561107868e-03 0.0000000000000000e+00  2.7071438295680523e-05 -3.2946036298083865e-03 0.0000000000000000e+00  1.2252804636574100e-05 -2.8579217965086644e-03 0.0000000000000000e+00  8.0703705873694676e-05 -3.0598155089262406e-03 0.0000000000000000e+00  6.9077352762051032e-05 -2.5633753845791013e-03 0.0000000000000000e+00  5.2231234948240525e-05 -2.4748925034860881e-03 0.0000000000000000e+00  1.9658482131487559e-05 -1.8226683874195233e-03 0.0000000000000000e+00  -2.0212388542089296e-05 -7.8946267596872403e-04 0.0000000000000000e+00  1.7016986224072911e-04 -1.9655892399939316e-03 0.0000000000000000e+00  2.0914165197618209e-04 -2.2987959539638473e-03 0.0000000000000000e+00  8.2691747972125614e-05 -1.2928137792643356e-03 0.0000000000000000e+00  8.9726263378607499e-05 -2.3194400427883821e-03 0.0000000000000000e+00  -3.3740738704239223e-05 -1.3263071789139233e-03 0.0000000000000000e+00  1.8665948659454907e-04 -2.5443460867082776e-03 0.0000000000000000e+00  1.1670944065176585e-04 -2.8350558168073682e-03 0.0000000000000000e+00  5.6176638758004239e-05 -3.0807309939837580e-03 0.0000000000000000e+00  8.4176498896417249e-05 -1.9606509857421238e-03 0.0000000000000000e+00  9.3900099501917440e-05 -7.4613971583819627e-04 0.0000000000000000e+00  1.4204548010967829e-05 -3.2985070516868080e-03 0.0000000000000000e+00  2.4915607028870479e-05 -3.2408393260032454e-03 0.0000000000000000e+00  1.4570392836289777e-04 -2.2395206706408216e-03 0.0000000000000000e+00  1.0387526854261220e-04 -1.8004549071292319e-03 0.0000000000000000e+00  3.4939614391547033e-06 -3.2121360129969728e-03 0.0000000000000000e+00  -7.2216017856199041e-06 -3.0900688117301988e-03 0.0000000000000000e+00  1.5174149903271762e-04 -2.4483178322064320e-03 0.0000000000000000e+00  -1.0607555773290117e-05 -1.9207652175677081e-05 0.0000000000000000e+00  1.1927348420660976e-05 -1.7065354168280010e-05 0.0000000000000000e+00  1.2092740114902738e-04 -2.8708169774159902e-03 0.0000000000000000e+00  9.4993158795984910e-06 -1.9767586370914641e-03 0.0000000000000000e+00  -2.2422040113701596e-05 -1.5051034295323739e-03 0.0000000000000000e+00  -4.8269593686716726e-05 -3.4720924547864323e-04 0.0000000000000000e+00  -5.2469501840017711e-05 -5.3816826535491187e-04 0.0000000000000000e+00  1.3803445875542730e-04 -2.6935758738213813e-03 0.0000000000000000e+00  -1.2331374212163650e-05 -1.6493535641854864e-03 0.0000000000000000e+00  2.1636336562023698e-05 -2.1043015514483846e-03 0.0000000000000000e+00  -4.4736337598962098e-05 -1.0628546730858280e-03 0.0000000000000000e+00  1.1323804133682104e-04 -2.1103543661141716e-03 0.0000000000000000e+00  2.3105084821465675e-04 -2.1117774037429037e-03 0.0000000000000000e+00  9.9607591946261685e-05 -1.0585531888503677e-03 0.0000000000000000e+00  -4.0869157781175337e-05 -1.8268433312914459e-04 0.0000000000000000e+00  4.0112768860777926e-05 -1.8977748596367195e-03 0.0000000000000000e+00  -1.8450234607776732e-05 -2.8615131146072018e-03 0.0000000000000000e+00  6.1255048430525312e-07 -2.6774014058282281e-03 0.0000000000000000e+00  1.1713532941913408e-04 -1.5041540419157046e-03 0.0000000000000000e+00  8.6334227505972954e-05 -3.4351069959331605e-04 0.0000000000000000e+00  1.0181049124809413e-04 -5.4502177645334847e-04 0.0000000000000000e+00  1.2338796909995865e-04 -1.9869366258950002e-03 0.0000000000000000e+00  1.2223563882515071e-04 -1.6528344466201796e-03 0.0000000000000000e+00  1.4721623085082970e-04 -2.1081077524075166e-03 0.0000000000000000e+00  -2.7567068033979887e-05 -1.0284144027540262e-04 0.0000000000000000e+00  2.0228262617804144e-05 -1.8461396237322853e-03 0.0000000000000000e+00  1.6973669010484461e-04 -2.6631286365588563e-03 0.0000000000000000e+00  9.8824618087836786e-05 -2.9414009936471995e-03 0.0000000000000000e+00  1.0597674582950074e-04 -8.6752604626352163e-04 0.0000000000000000e+00  4.7297888216246495e-05 -3.1548930621699647e-03 0.0000000000000000e+00  9.4551153044375495e-05 -2.0107459596791027e-03 0.0000000000000000e+00  2.3591509505809374e-05 -3.2748501788309545e-03 0.0000000000000000e+00  1.1447119369583758e-05 -3.2908364056194340e-03 0.0000000000000000e+00  1.1315776847251955e-04 -1.8784491706682199e-03 0.0000000000000000e+00  2.8062518017242594e-06 -3.2560891646922284e-03 0.0000000000000000e+00  1.5719112607084676e-04 -2.3172905504274207e-03 0.0000000000000000e+00  -1.5840406945022657e-05 -3.0033027662492951e-03 0.0000000000000000e+00  1.5482063421041526e-04 -2.5418468174979356e-03 0.0000000000000000e+00  1.3967478139809093e-04 -1.8765583114479243e-03 0.0000000000000000e+00  9.3928254737528773e-05 -2.2236899234711585e-03 0.0000000000000000e+00  -4.9936082413645960e-05 -1.2178528149418342e-03 0.0000000000000000e+00  6.9837563203727744e-05 -1.9804747638851067e-04 0.0000000000000000e+00  3.9128324002120044e-05 -8.6541779925230271e-05 0.0000000000000000e+00  9.3328358186141837e-05 -3.1793362867457921e-03 0.0000000000000000e+00  7.3056564143977936e-06 -2.5467144471713657e-03 0.0000000000000000e+00  4.8954169666399392e-05 -3.2794889077492617e-03 0.0000000000000000e+00  -3.4113039572169987e-05 -2.9398861270777650e-03 0.0000000000000000e+00  -2.2229860904618027e-06 -3.2738212184953140e-03 0.0000000000000000e+00  -3.7765789387731744e-05 -3.1584634859317569e-03 0.0000000000000000e+00  3.5297558634468028e-05 -2.3278623304357421e-03 0.0000000000000000e+00  1.2107249616470541e-04 -2.9886912346481259e-03 0.0000000000000000e+00  -7.0453880835646300e-06 -1.8819051769418519e-03 0.0000000000000000e+00  2.0870388153831551e-05 -2.2006716484735947e-03 0.0000000000000000e+00  4.6594284444813137e-05 -2.4653733419640542e-03 0.0000000000000000e+00  -1.6757458296444674e-05 -1.7557357265660192e-03 0.0000000000000000e+00  2.1255206943331302e-05 -2.6597628747052049e-03 0.0000000000000000e+00  -6.0088824383402259e-05 -8.8456943585904057e-04 0.0000000000000000e+00  -6.7086812401461886e-05 -6.8882863114653364e-04 0.0000000000000000e+00  1.7728062468021574e-04 -1.9277495746127362e-03 0.0000000000000000e+00  2.2123743009998302e-04 -2.0146069594393387e-03 0.0000000000000000e+00  -2.8576936596269364e-05 -3.0236918971600388e-03 0.0000000000000000e+00  -2.2991168719745756e-05 -3.2111193234402890e-03 0.0000000000000000e+00  5.8727305894444224e-05 -3.2598254342131750e-03 0.0000000000000000e+00  3.5708133925376419e-06 -2.7565331249746277e-03 0.0000000000000000e+00  1.3918472583859085e-05 -3.2912241612392946e-03 0.0000000000000000e+00  9.4276060073134987e-05 -3.1240019710437493e-03 0.0000000000000000e+00  3.3193602167386571e-05 -2.3961795080130652e-03 0.0000000000000000e+00  1.1517016977983822e-04 -1.2033594649697714e-03 0.0000000000000000e+00  2.4848378891307460e-04 -2.2261786672930182e-03 0.0000000000000000e+00  2.2864210269732713e-04 -2.3944699682822532e-03 0.0000000000000000e+00  1.1392772933708727e-04 -1.3795976908357475e-03 0.0000000000000000e+00  -3.2690176121241948e-06 -3.1581376270906122e-03 0.0000000000000000e+00  -4.45