<?xml version="1.0"?>
<VTKFile type="UnstructuredGrid"  version="0.1"  >
<UnstructuredGrid>
<Piece  NumberOfPoints="439" NumberOfCells="725">
<Points>
<DataArray  type="Float64"  NumberOfComponents="3"  format="ascii">0.5989106952874034 0.1694409519322585 0  0.6004300752159127 0.1894140057231565 0  0.2489897949 0.21 0  0.2489897949 0.19 0  0.5996704262490807 0.1794274939957605 0  0.2496355385699469 0.2060260530378829 0  0.249959460510575 0.2020130349814059 0  0.2499594605105767 0.1979869650186357 0  0.24963553856995 0.1939739469621422 0  0.253968616020549 0.2099689104675491 0  0.2589499379092383 0.2099360531231343 0  0.2639305224577068 0.2098946542778729 0  0.2689086923249058 0.2098271427983423 0  0.2738844408074219 0.2097461066513406 0  0.2788608893461518 0.2096457272921798 0  0.2838335449616065 0.209535889512559 0  0.2888027364278383 0.2094089521466846 0  0.2937716287060163 0.2092690892779241 0  0.2987381752568517 0.2091164778465879 0  0.3037055328878267 0.208947261334198 0  0.308672289811302 0.208775633475093 0  0.3136345970577731 0.2085855006629087 0  0.3186002323583413 0.2083861646743445 0  0.3235603277809838 0.2081780076126075 0  0.3285208297001102 0.2079575528759383 0  0.3334796252129823 0.2077300383461498 0  0.3384370466333384 0.2074906426232786 0  0.3433923671591137 0.2072465722895139 0  0.3483470647369645 0.2069926715568853 0  0.3533002671776626 0.2067320713519454 0  0.3582519349350929 0.2064649757304244 0  0.3632044197974346 0.2061876262540866 0  0.3681566954072267 0.2059089617797657 0  0.3731071012050297 0.2056209614865028 0  0.3780562969589579 0.2053293084709184 0  0.383005067948225 0.2050310398289465 0  0.3879529814404119 0.2047280675344536 0  0.3928997970974299 0.2044206942606581 0  0.3978472396365073 0.2041065070022731 0  0.4027944822488971 0.2037917682865354 0  0.4077399326001841 0.2034708037076078 0  0.4126856398355147 0.2031454044296344 0  0.4176311762972127 0.202819010131536 0  0.4225754507562785 0.2024873834258839 0  0.427520520393185 0.2021535348153464 0  0.4324642115913562 0.2018165800365706 0  0.4374086066402423 0.2014765314758681 0  0.442351893098301 0.2011344468094793 0  0.4472949143907762 0.2007895198568686 0  0.452238004539479 0.2004426510754377 0  0.4571809982894419 0.2000934750412988 0  0.4621233166959614 0.199742156316213 0  0.4670657553573873 0.1993891334032031 0  0.4720080762819928 0.1990340527507526 0  0.4769498091140282 0.1986771281469385 0  0.4818915497127114 0.1983187032272198 0  0.4868331842844414 0.1979584930780343 0  0.4917743006136446 0.1975967962953414 0  0.4967153967812525 0.1972337964040345 0  0.5016563816725734 0.1968692865601646 0  0.5065968921252251 0.1965034992378972 0  0.5115373510183322 0.1961366177108407 0  0.5164776684048291 0.1957684718592629 0  0.5214175434309211 0.1953992847003924 0  0.5263573818317226 0.1950291913770183 0  0.5312970356762711 0.1946581128269987 0  0.5362363879060951 0.1942862167475364 0  0.5411754407821774 0.1939136943247395 0  0.5461142013499343 0.1935404011354316 0  0.5510528187910227 0.1931664482659561 0  0.5559913500451293 0.1927923795026215 0  0.5609295580708991 0.1924176439966294 0  0.5658677226712951 0.1920426425738317 0  0.5708056086063578 0.1916674205167845 0  0.5757433040281343 0.1912919294617027 0  0.5806809026565888 0.1909164167829035 0  0.5856183232222513 0.1905408083471286 0  0.5905556350088724 0.190165157213815 0  0.5954928925343267 0.1897895823012219 0  0.5939735379136599 0.1698166000995467 0  0.5890363707767954 0.1701922748681082 0  0.5840992263320363 0.1705679872825555 0  0.5791621218649954 0.1709436802360229 0  0.5742250637786587 0.1713192784561592 0  0.5692880699689276 0.1716948098613456 0  0.5643511634565528 0.1720700755950688 0  0.5594144500400139 0.1724450787120921 0  0.5544777175052074 0.1728198186569896 0  0.5495411503842793 0.1731940111931854 0  0.5446046844149356 0.1735678805937453 0  0.5396681931516256 0.1739410271833815 0  0.5347319253497519 0.1743133210096332 0  0.529795829043646 0.1746854226578268 0  0.5248596368015876 0.1750563641946868 0  0.5199237314498825 0.1754261004750583 0  0.5149879960807056 0.1757955479577911 0  0.5100520408417337 0.1761634705424279 0  0.5051164237450355 0.1765299420161863 0  0.5001809927650636 0.1768960613841029 0  0.4952452717456771 0.177260323918037 0  0.4903099486027438 0.1776228762494392 0  0.4853748340002972 0.1779850181522014 0  0.4804393818141641 0.1783449852924262 0  0.4755044292538492 0.1787029428072687 0  0.4705697093452965 0.1790602082250048 0  0.4656348626433433 0.1794153255146868 0  0.4607005326243598 0.1797679583261784 0  0.4557662859597834 0.1801201117944696 0  0.4508316012782662 0.1804693659469665 0  0.445898010453845 0.180815594299373 0  0.4409647673153299 0.1811611420488576 0  0.4360315402594348 0.1815032290011704 0  0.431098302614204 0.1818435340799775 0  0.4261655422906995 0.1821809287402676 0  0.4212329694701936 0.1825145627737459 0  0.4163015175999923 0.1828462959282362 0  0.4113700213631547 0.1831740816904392 0  0.4064395709444086 0.1834986127312936 0  0.4015099641012946 0.1838191810063679 0  0.396580660288384 0.1841353182782866 0  0.3916508961730259 0.1844479901624816 0  0.3867215392628275 0.1847555038285106 0  0.3817948206638953 0.18505944663633 0  0.3768667866831361 0.1853570965365453 0  0.3719414475552516 0.1856487867479705 0  0.3670147235420115 0.1859356267740956 0  0.3620893653329041 0.1862149212723664 0  0.357163329207804 0.1864893931166754 0  0.3522375824144885 0.1867561015228765 0  0.3473154343461404 0.1870175300559937 0  0.3423909616145797 0.1872702771820212 0  0.3374703372732119 0.1875141499035121 0  0.3325464968779503 0.1877504866808813 0  0.3276246021169179 0.1879744398705872 0  0.3227040415855367 0.1881954849329475 0  0.3177825509440492 0.1884025843777891 0  0.3128662553081436 0.1886004613728025 0  0.3079460960191584 0.1887883188378003 0  0.3030280399268153 0.1889616934700855 0  0.2981093804694799 0.1891266605675136 0  0.2931911451359799 0.1892770258905695 0  0.2882781277665966 0.1894174814724279 0  0.2833606960812504 0.1895433024880453 0  0.2784498047763518 0.1896553292026966 0  0.2735357413760931 0.1897493225620628 0  0.26862766302002 0.1898282440491213 0  0.2637169970959442 0.1898950998883868 0  0.2588069181417972 0.1899426675697691 0  0.2538982108472803 0.189968134443382 0  0.5992905917707804 0.1744342228653904 0  0.6000502499379082 0.1844207539588573 0  0.2589786500070717 0.2005190655310875 0  0.5428906253123118 0.1837416067606702 0  0.5679500108311596 0.1818111601507981 0  0.2774671461768341 0.2004919946183379 0  0.5136223130078647 0.1858428496502492 0  0.528435962305824 0.1847335370780043 0  0.294489265641716 0.198553126819425 0  0.582436793479661 0.1802797517581961 0  0.3104056019116678 0.1986889815360936 0  0.3370144550726352 0.1983909918190224 0  0.4988081282222103 0.1869422920913996 0  0.3552395289625628 0.1966203195012052 0  0.4839934276331737 0.1880298832107667 0  0.3706788930787007 0.1957664490447662 0  0.3898071125092273 0.1945945293329646 0  0.4687833091009951 0.1887700740034283 0  0.4540042340087786 0.1902842602399258 0  0.4042615569930606 0.1937723531135578 0  0.4194354793014141 0.1926720083852816 0  0.4385641923747256 0.1913520423873627 0  0.3202358823962961 0.1983337466027251 0  0.5581298443575722 0.1825780584236192 0  0.427931592759587 0.1919455036921413 0  0.3467393146950609 0.1972232854325813 0  0.3813101426076089 0.195269860109953 0  0.2860685886687731 0.1995344473100469 0  0.5906713940288819 0.1783493177787145 0  0.2680120684254866 0.2015375787888383 0  0.4615719774246129 0.1920053312860906 0  0.4912069269052869 0.1898592516506756 0  0.5060232815684582 0.1887657849846708 0  0.3970715692457533 0.191879921187553 0  0.4763897969230948 0.1909398552525023 0  0.5208387643320734 0.1876613953784551 0  0.4467534710725036 0.1930532344243416 0  0.5356533665584808 0.1865480950153989 0  0.4118804147834176 0.1909174818460725 0  0.362521681245059 0.193963207764725 0  0.3032925456510018 0.1967223167065018 0  0.5748134670516559 0.1790585497998176 0  0.5499781156522789 0.1803210976060853 0  0.3283027995544464 0.2008436288100734 0  0.5484457519653403 0.1871780937364136 0  0.3300409729509785 0.194043138885033 0  0.5373804337518907 0.1802661564241332 0  0.5225691202037639 0.1813805229678613 0  0.5077577534828841 0.1824862428682918 0  0.5774660415321099 0.1850089171151812 0  0.3013065975865559 0.2029173277983058 0  0.4781350467446836 0.1846638367835368 0  0.4929463634734825 0.1835813377828819 0  0.3952700766433965 0.1981350905598343 0  0.3606731395658374 0.2002021396038998 0  0.458948576358626 0.1860438224266787 0  0.4485137429236226 0.1867824334581733 0  0.4100939016838442 0.1971781534979117 0  0.2557715391224714 0.1960710603867834 0  0.2550270944310196 0.2034307732635744 0  0.4349292482337697 0.19540344671443 0  0.3743504672496825 0.1917531693550521 0  0.3404029636687394 0.1934336467119016 0  0.2812140123104973 0.1956577814332499 0  0.2911618162508153 0.1954363655988229 0  0.4248155627433517 0.1962736717995039 0  0.3499193875854805 0.1929455331497092 0  0.3844528740807665 0.190963320336272 0  0.3164698053561529 0.1946340932004053 0  0.562161877656591 0.1860789126040844 0  0.5618639970919975 0.1783622923343336 0  0.3163827198298875 0.2023524819834867 0  0.2710248281758122 0.1957801122902504 0  0.5873475426879398 0.1851087392403638 0  0.4342245852377661 0.1871149090590855 0  0.4239309698604695 0.188230701252556 0  0.3404633877655502 0.2021883847934231 0  0.2809729765117951 0.2043907767530002 0  0.2915401235455586 0.2041260927287728 0  0.3749739618657552 0.2000418017775531 0  0.3501542089095519 0.2020731408245122 0  0.3847681505672548 0.200092314486542 0  0.2647737475328358 0.1961083239036369 0  0.5943098153187547 0.1838947610763151 0  0.5315282705887837 0.1802245007129169 0  0.5167171443116509 0.1813356731773301 0  0.3071413440461172 0.2031850077043981 0  0.5019060617718217 0.182437421041391 0  0.5716980848825041 0.1859216815826312 0  0.4870950457529192 0.1835277738438413 0  0.4723275155789638 0.1845973799163757 0  0.3665227241985772 0.200365
[...]
<PointData  Vectors="d"> 
<DataArray  type="Float64"  Name="d"  NumberOfComponents="3" format="ascii">-1.0893047125964572e-03 -2.0559048067741552e-02 0.0000000000000000e+00  4.3007521591276686e-04 -2.0585994276843527e-02 0.0000000000000000e+00  0.0000000000000000e+00 0.0000000000000000e+00 0.0000000000000000e+00  0.0000000000000000e+00 0.0000000000000000e+00 0.0000000000000000e+00  -3.2957375091930579e-04 -2.0572506004239523e-02 0.0000000000000000e+00  0.0000000000000000e+00 0.0000000000000000e+00 0.0000000000000000e+00  0.0000000000000000e+00 0.0000000000000000e+00 0.0000000000000000e+00  0.0000000000000000e+00 0.0000000000000000e+00 0.0000000000000000e+00  0.0000000000000000e+00 0.0000000000000000e+00 0.0000000000000000e+00  3.5015414919658584e-05 -3.1089532450933035e-05 0.0000000000000000e+00  7.2531597984171349e-05 -6.3946876865684393e-05 0.0000000000000000e+00  1.0931044081461286e-04 -1.0534572212709520e-04 0.0000000000000000e+00  1.4367460237584069e-04 -1.7285720165772088e-04 0.0000000000000000e+00  1.7561737926491151e-04 -2.5389334865945573e-04 0.0000000000000000e+00  2.0826021237651529e-04 -3.5427270782019486e-04 0.0000000000000000e+00  2.3711012221284156e-04 -4.6411048744098157e-04 0.0000000000000000e+00  2.6249588282168903e-04 -5.9104785331534073e-04 0.0000000000000000e+00  2.8758245536405190e-04 -7.3091072207592150e-04 0.0000000000000000e+00  3.1032330058089404e-04 -8.8352215341210342e-04 0.0000000000000000e+00  3.3387522592703622e-04 -1.0527386658020434e-03 0.0000000000000000e+00  3.5682644378382211e-04 -1.2243665249070002e-03 0.0000000000000000e+00  3.7532798463653339e-04 -1.4144993370913462e-03 0.0000000000000000e+00  3.9715757958643731e-04 -1.6138353256555465e-03 0.0000000000000000e+00  4.1344729661063005e-04 -1.8219923873925117e-03 0.0000000000000000e+00  4.3014351011849851e-04 -2.0424471240617172e-03 0.0000000000000000e+00  4.4513331736153815e-04 -2.2699616538501750e-03 0.0000000000000000e+00  4.5874903210996919e-04 -2.5093573767214022e-03 0.0000000000000000e+00  4.7026385225610852e-04 -2.7534277104861032e-03 0.0000000000000000e+00  4.8115572448851636e-04 -3.0073284431146961e-03 0.0000000000000000e+00  4.9055245956814775e-04 -3.2679286480546336e-03 0.0000000000000000e+00  4.9841451138017874e-04 -3.5350242695755740e-03 0.0000000000000000e+00  5.0709366810352662e-04 -3.8123737459133801e-03 0.0000000000000000e+00  5.1556357227718194e-04 -4.0910382202342865e-03 0.0000000000000000e+00  5.2216366445095039e-04 -4.3790385134971736e-03 0.0000000000000000e+00  5.2755371277023286e-04 -4.6706915290815332e-03 0.0000000000000000e+00  5.3251899641302170e-04 -4.9689601710534983e-03 0.0000000000000000e+00  5.3662678297817037e-04 -5.2719324655464191e-03 0.0000000000000000e+00  5.3963673436672565e-04 -5.5793057393418938e-03 0.0000000000000000e+00  5.4327356783674468e-04 -5.8934929977269247e-03 0.0000000000000000e+00  5.4671047459851744e-04 -6.2082317134645832e-03 0.0000000000000000e+00  5.4835512027333734e-04 -6.5291962923921523e-03 0.0000000000000000e+00  5.5025664998362134e-04 -6.8545955703656035e-03 0.0000000000000000e+00  5.5198740606080628e-04 -7.1809898684640008e-03 0.0000000000000000e+00  5.5245615951491538e-04 -7.5126165741160617e-03 0.0000000000000000e+00  5.5372009079316027e-04 -7.8464651846535567e-03 0.0000000000000000e+00  5.5360558333099612e-04 -8.1834199634294308e-03 0.0000000000000000e+00  5.5419492656504988e-04 -8.5234685241319143e-03 0.0000000000000000e+00  5.5367567896810776e-04 -8.8655531905207467e-03 0.0000000000000000e+00  5.5289126577942355e-04 -9.2104801431313749e-03 0.0000000000000000e+00  5.5217570883448451e-04 -9.5573489245623557e-03 0.0000000000000000e+00  5.5136375315540363e-04 -9.9065249587012554e-03 0.0000000000000000e+00  5.4987645404536601e-04 -1.0257843683787011e-02 0.0000000000000000e+00  5.4850940982080032e-04 -1.0610866596796975e-02 0.0000000000000000e+00  5.4702462879300368e-04 -1.0965947249247451e-02 0.0000000000000000e+00  5.4495175516147004e-04 -1.1322871853061502e-02 0.0000000000000000e+00  5.4288664819801265e-04 -1.1681296772780169e-02 0.0000000000000000e+00  5.4071551426535783e-04 -1.2041506921965713e-02 0.0000000000000000e+00  5.3802613783799898e-04 -1.2403203704658642e-02 0.0000000000000000e+00  5.3531659979153847e-04 -1.2766203595965496e-02 0.0000000000000000e+00  5.3249578548380280e-04 -1.3130713439835389e-02 0.0000000000000000e+00  5.2920053247582739e-04 -1.3496500762102829e-02 0.0000000000000000e+00  5.2585371994483059e-04 -1.3863382289159325e-02 0.0000000000000000e+00  5.2236540082549769e-04 -1.4231528140737070e-02 0.0000000000000000e+00  5.1843472127950695e-04 -1.4600715299607631e-02 0.0000000000000000e+00  5.1446741642250369e-04 -1.4970808622981665e-02 0.0000000000000000e+00  5.1031555533199492e-04 -1.5341887173001329e-02 0.0000000000000000e+00  5.0586207949644235e-04 -1.5713783252463611e-02 0.0000000000000000e+00  5.0110924994077447e-04 -1.6086305675260509e-02 0.0000000000000000e+00  4.9606411208128517e-04 -1.6459598864568374e-02 0.0000000000000000e+00  4.9087584753185936e-04 -1.6833551734043915e-02 0.0000000000000000e+00  4.8560139598365619e-04 -1.7207620497378503e-02 0.0000000000000000e+00  4.8000371611050293e-04 -1.7582356003370613e-02 0.0000000000000000e+00  4.7436261084709392e-04 -1.7957357426168306e-02 0.0000000000000000e+00  4.6844284024612703e-04 -1.8332579483215546e-02 0.0000000000000000e+00  4.6233255638839551e-04 -1.8708070538297331e-02 0.0000000000000000e+00  4.5612547920547759e-04 -1.9083583217096484e-02 0.0000000000000000e+00  4.4974033921709182e-04 -1.9459191652871365e-02 0.0000000000000000e+00  4.4324642019159946e-04 -1.9834842786185043e-02 0.0000000000000000e+00  4.3669823998617119e-04 -2.0210417698778054e-02 0.0000000000000000e+00  -1.0826563807232118e-03 -2.0183399900453248e-02 0.0000000000000000e+00  -1.0760178119626914e-03 -1.9807725131891794e-02 0.0000000000000000e+00  -1.0693565510830705e-03 -1.9432012717444550e-02 0.0000000000000000e+00  -1.0626553124773311e-03 -1.9056319763977168e-02 0.0000000000000000e+00  -1.0559076931926429e-03 -1.8680721543840845e-02 0.0000000000000000e+00  -1.0490957973033985e-03 -1.8305190138654483e-02 0.0000000000000000e+00  -1.0421966040652232e-03 -1.7929924404931165e-02 0.0000000000000000e+00  -1.0351043149748847e-03 -1.7554921287907907e-02 0.0000000000000000e+00  -1.0280311441506354e-03 -1.7180181343010401e-02 0.0000000000000000e+00  -1.0207925594242324e-03 -1.6805988806814630e-02 0.0000000000000000e+00  -1.0134528231686179e-03 -1.6432119406254702e-02 0.0000000000000000e+00  -1.0061383808794443e-03 -1.6058972816618493e-02 0.0000000000000000e+00  -9.9860047714427059e-04 -1.5686678990366826e-02 0.0000000000000000e+00  -9.9089107761700965e-04 -1.5314577342173223e-02 0.0000000000000000e+00  -9.8327761407516405e-04 -1.4943635805313216e-02 0.0000000000000000e+00  -9.7537726014198058e-04 -1.4573899524941668e-02 0.0000000000000000e+00  -9.6730692371620566e-04 -1.4204452042208920e-02 0.0000000000000000e+00  -9.5945645708889562e-04 -1.3836529457572097e-02 0.0000000000000000e+00  -9.5126784818221424e-04 -1.3470057983813693e-02 0.0000000000000000e+00  -9.4289312251696151e-04 -1.3103938615897062e-02 0.0000000000000000e+00  -9.3480843629495142e-04 -1.2739676081962990e-02 0.0000000000000000e+00  -9.2632587360932017e-04 -1.2377123750560807e-02 0.0000000000000000e+00  -9.1763477043714579e-04 -1.2014981847798622e-02 0.0000000000000000e+00  -9.0928125094044069e-04 -1.1655014707573828e-02 0.0000000000000000e+00  -9.0042810564739100e-04 -1.1297057192731261e-02 0.0000000000000000e+00  -8.9134230857180260e-04 -1.0939791774995199e-02 0.0000000000000000e+00  -8.8238330491211849e-04 -1.0584674485313202e-02 0.0000000000000000e+00  -8.7290761827512177e-04 -1.0232041673821626e-02 0.0000000000000000e+00  -8.6334857722702551e-04 -9.8798882055303790e-03 0.0000000000000000e+00  -8.5422755311470155e-04 -9.5306340530335095e-03 0.0000000000000000e+00  -8.4401267192661634e-04 -9.1844057006269519e-03 0.0000000000000000e+00  -8.3345010481661059e-04 -8.8388579511424030e-03 0.0000000000000000e+00  -8.2287145509481587e-04 -8.4967709988296117e-03 0.0000000000000000e+00  -8.1230339470918418e-04 -8.1564659200225060e-03 0.0000000000000000e+00  -8.0125801258719648e-04 -7.8190712597323540e-03 0.0000000000000000e+00  -7.9002512745459720e-04 -7.4854372262540998e-03 0.0000000000000000e+00  -7.7767129201335280e-04 -7.1537040717637706e-03 0.0000000000000000e+00  -7.6536182320468681e-04 -6.8259183095607540e-03 0.0000000000000000e+00  -7.5200653629092676e-04 -6.5013872687064156e-03 0.0000000000000000e+00  -7.3780767375312202e-04 -6.1808189936320770e-03 0.0000000000000000e+00  -7.2330578100609339e-04 -5.8646817217134165e-03 0.0000000000000000e+00  -7.0926419072884562e-04 -5.5520098375183482e-03 0.0000000000000000e+00  -6.9481539528070172e-04 -5.2444961714894628e-03 0.0000000000000000e+00  -6.7772828858710782e-04 -4.9405533636699989e-03 0.0000000000000000e+00  -6.6195656368977346e-04 -4.6429034634546838e-03 0.0000000000000000e+00  -6.4348998592570611e-04 -4.3512132520295340e-03 0.0000000000000000e+00  -6.2640829349698622e-04 -4.0643732259044441e-03 0.0000000000000000e+00  -6.0796079695726369e-04 -3.7850787276335666e-03 0.0000000000000000e+00  -5.9019121640676252e-04 -3.5106068833245900e-03 0.0000000000000000e+00  -5.7213230410049765e-04 -3.2438984771235371e-03 0.0000000000000000e+00  -5.5047466679055996e-04 -2.9824699440063667e-03 0.0000000000000000e+00  -5.3114169271235010e-04 -2.7297228179788149e-03 0.0000000000000000e+00  -5.0796032844157798e-04 -2.4858500964879773e-03 0.0000000000000000e+00  -4.8799501806477810e-04 -2.2495133191186580e-03 0.0000000000000000e+00  -4.6608407345723787e-04 -2.0255601294127475e-03 0.0000000000000000e+00  -4.4283889918043641e-04 -1.8045150670524270e-03 0.0000000000000000e+00  -4.2052383500987023e-04 -1.5974156222108911e-03 0.0000000000000000e+00  -3.9301376525759682e-04 -1.3995386271975338e-03 0.0000000000000000e+00  -3.6936734859967322e-04 -1.2116811621996413e-03 0.0000000000000000e+00  -3.4361773530439013e-04 -1.0383065299144449e-03 0.0000000000000000e+00  -3.1847148700136759e-04 -8.7333943248640454e-04 0.0000000000000000e+00  -2.9290111486304028e-04 -7.2297410943053368e-04 0.0000000000000000e+00  -2.6211277859081839e-04 -5.8251852757206445e-04 0.0000000000000000e+00  -2.3573875827915630e-04 -4.5669751195473912e-04 0.0000000000000000e+00  -2.0282435751978802e-04 -3.4467079730337446e-04 0.0000000000000000e+00  -1.7308205213120438e-04 -2.5067743793717924e-04 0.0000000000000000e+00  -1.3735470256590681e-04 -1.7175595087876955e-04 0.0000000000000000e+00  -1.0421492100343635e-04 -1.0490011161313662e-04 0.0000000000000000e+00  -7.0488169512022983e-05 -5.7332430230854387e-05 0.0000000000000000e+00  -3.5389758377620417e-05 -3.1865556617962395e-05 0.0000000000000000e+00  -7.0940822921961987e-04 -2.0565777134587956e-02 0.0000000000000000e+00  5.0249937908205615e-05 -2.0579246041115554e-02 0.0000000000000000e+00  5.2234754224146938e-06 -3.3323811752839961e-05 0.0000000000000000e+00  -2.5560907299588772e-04 -1.6258393239298792e-02 0.0000000000000000e+00  -2.8977864565656307e-04 -1.8159298430100567e-02 0.0000000000000000e+00  1.5753465031700366e-05 -3.0219732385473863e-04 0.0000000000000000e+00  -2.2727036903225594e-04 -1.4059492998842701e-02 0.0000000000000000e+00  -2.4503818791410831e-04 -1.5168805571092552e-02 0.0000000000000000e+00  -2.1629564048661086e-05 -7.3806402111358026e-04 0.0000000000000000e+00  -3.4128965883159962e-04 -1.9263228342138804e-02 0.0000000000000000e+00  -7.2377452577062742e-06 -1.2814770448041953e-03 0.0000000000000000e+00  1.4279530780188907e-05 -2.4384694243743598e-03 0.0000000000000000e+00  -2.1003803783561199e-04 -1.2960050557690610e-02 0.0000000000000000e+00  -4.2088608341502960e-05 -3.3796804988556381e-03 0.0000000000000000e+00  -1.9332151001885320e-04 -1.1872459438318245e-02 0.0000000000000000e+00  -5.8478311854377159e-05 -4.2477886506027225e-03 0.0000000000000000e+00  -8.1145001022122799e-05 -5.4054706671182477e-03 0.0000000000000000e+00  -2.0244594827836625e-04 -1.0771598422241093e-02 0.0000000000000000e+00  -1.5349767541806292e-04 -9.7157397599839483e-03 0.0000000000000000e+00  -9.1934408772472635e-05 -6.3253042373666189e-03 0.0000000000000000e+00  -1.1561244254288003e-04 -7.3279916148241116e-03 0.0000000000000000e+00  -1.3778548972563187e-04 -8.6337199173145054e-03 0.0000000000000000e+00  -1.1392629374312571e-05 -1.6751376119147742e-03 0.0000000000000000e+00  -2.7550975051285386e-04 -1.7413057361738472e-02 0.0000000000000000e+00  -1.3512192912638985e-04 -7.9034011286828569e-03 0.0000000000000000e+00  -2.6679931486481132e-05 -2.9278097468562075e-03 0.0000000000000000e+00  -6.2491958281924795e-05 -4.8812350694990283e-03 0.0000000000000000e+00  2.5097656326595777e-07 -5.0709726057129726e-04 0.0000000000000000e+00  -4.5098714923762516e-04 -1.9895598156159856e-02 0.0000000000000000e+00  2.2752279623913127e-05 -1.3754685789069506e-04 0.0000000000000000e+00  -1.4628180149476648e-06 -1.0245032042709681e-02 0.0000000000000000e+00  -2.9347571058390851e-05 -1.2391111678133514e-02 0.0000000000000000e+00  -4.4410024740112143e-05 -1.3484578344140982e-02 0.0000000000000000e+00  -2.3239682292410297e-04 -5.8697154836434571e-03 0.0000000000000000e+00  -1.5060436394824187e-05 -1.1310508076302853e-02 0.0000000000000000e+00  -6.0344377972095839e-05 -1.4588967950363376e-02 0.0000000000000000e+00  1.1447946738034405e-05 -9.1971289044584289e-03 0.0000000000000000e+00  -7.7159268403963481e-05 -1.5702268313420926e-02 0.0000000000000000e+00  -2.5496840211405056e-04 -6.8321548251251722e-03 0.0000000000000000e+00  -1.7564488427613390e-04 -3.7864289064668743e-03 0.0000000000000000e+00  -7.9112010894349276e-05 -1.0273199646850396e-03 0.0000000000000000e+00  -4.6750442016702556e-04 -1.8691086871332703e-02 0.0000000000000000e+00  -4.8174026677716734e-04 -1.6807380867681427e-02 0.0000000000000000e+00  1.1002633976227420e-04 -2.0278927161672417e-03 0.0000000000000000e+00  2.7849915594163048e-05 -1.6662227833062676e-02 0.0000000000000000e+00  -1.9375413302028785e-04 -2.1165395455160665e-03 0.0000000000000000e+00  -5.4065147192066060e-04 -1.5859025240277790e-02 0.0000000000000000e+00  -5.2054790320134846e-04 -1.4744658696544420e-02 0.0000000000000000e+00  -5.0049750723802939e-04 -1.3638938796118065e-02 0.0000000000000000e+00  -5.4893365994599918e-06 -1.8865901220407516e-02 0.0000000000000000e+00  1.2549932160111732e-04 -9.5749053728792137e-04 0.0000000000000000e+00  -4.6037001172748979e-04 -1.1461344880867242e-02 0.0000000000000000e+00  -4.8047039978455066e-04 -1.2543843881524379e-02 0.0000000000000000e+00  1.5666997163350815e-04 -5.7397277757623268e-03 0.0000000000000000e+00  1.6637283342562262e-04 -3.6726787316952291e-03 0.0000000000000000e+00  -4.3430448708864502e-04 -1.0081359237720598e-02 0.0000000000000000e+00  -4.1883959905787254e-04 -9.3427482062274272e-03 0.0000000000000000e+00  1.4907789522231100e-04 -6.6966648376873593e-03 0.0000000000000000e+00  -1.4760857725723486e-05 -1.4776638946106807e-05 0.0000000000000000e+00  1.2358400079653938e-05 -1.1869735537041701e-05 0.0000000000000000e+00  1.2610058730078041e-04 -8.3703110497254287e-03 0.0000000000000000e+00  -2.8573435872753823e-04 -4.4730728808032045e-03 0.0000000000000000e+00  -2.2287291769105741e-04 -2.6131454820874016e-03 0.0000000000000000e+00  -8.6155808486166921e-05 -3.8901076080024059e-04 0.0000000000000000e+00  -1.0682249317399256e-04 -6.4526726610533909e-04 0.0000000000000000e+00  1.4502916136251495e-04 -7.6795360064504875e-03 0.0000000000000000e+00  -2.4278814743248779e-04 -3.1012590444785978e-03 0.0000000000000000e+00  -3.1594159150288257e-04 -5.0834718579639273e-03 0.0000000000000000e+00  -1.6256318220315736e-04 -1.5253653629647204e-03 0.0000000000000000e+00  6.8765512500616533e-06 -1.7702736655814764e-02 0.0000000000000000e+00  -5.7739060997952631e-04 -1.7713900026804060e-02 0.0000000000000000e+00  1.4321624657468490e-04 -1.5154737589824646e-03 0.0000000000000000e+00  -6.3885244949956209e-05 -1.8953204233339703e-04 0.0000000000000000e+00  4.6105047579329433e-05 -1.9614048862718544e-02 0.0000000000000000e+00  -4.4337140650478591e-04 -8.3502368961658295e-03 0.0000000000000000e+00  -3.9868054732907209e-04 -7.6449968413501755e-03 0.0000000000000000e+00  2.0743668219791309e-04 -2.6056652356692112e-03 0.0000000000000000e+00  1.0448383570174112e-04 -3.8346502826536606e-04 0.0000000000000000e+00  1.3242023168629079e-04 -6.5485897832268309e-04 0.0000000000000000e+00  2.0256925526194403e-04 -4.4930522673023452e-03 0.0000000000000000e+00  2.3256001966524657e-04 -3.1022004941182735e-03 0.0000000000000000e+00  2.3986173802501720e-04 -5.0830268320939597e-03 0.0000000000000000e+00  -4.0739012669440757e-05 -1.0065039500053386e-04 0.0000000000000000e+00  -1.4949047534733283e-05 -2.0146781282603131e-02 0.0000000000000000e+00  -5.6899045683082698e-04 -1.5420009192170252e-02 0.0000000000000000e+00  -5.4869961712180108e-04 -1.4308836727755332e-02 0.0000000000000000e+00  1.4901848585145515e-04 -1.1617956828570549e-03 0.0000000000000000e+00  -5.2836504010470421e-04 -1.3207088863695348e-02 0.0000000000000000e+00  3.7781309068916140e-05 -1.8425121804644947e-02 0.0000000000000000e+00  -5.0796394215487219e-04 -1.2116736061241824e-02 0.0000000000000000e+00  -4.8768195066251053e-04 -1.1042866974613716e-02 0.0000000000000000e+00  1.9254654582352303e-04 -4.0019667227089214e-03 0.0000000000000000e+00  -4.7664337723170313e-04 -1.0493082320844848e-02 0.0000000000000000e+00  1.8374848108071665e-04 -6.1120635351061218e-03 0.0000000000000000e+00  -4.4512106747368553e-04 -8.9350806987682583e-03 0.0000000000000000e+00  1.7719555246205351e-04 -7.0821258532699364e-03 0.0000000000000000e+00  -6.3874224209716022e-04 -1.9541303311971656e-02 0.0000000000000000e+00  6.5882262480434188e-05 -1.7097601201528884e-02 0.0000000000000000e+00  -2.0682344924011076e-04 -1.8577257414213442e-03 0.0000000000000000e+00  8.0736368882399867e-05 -2.0493906391225395e-04 0.0000000000000000e+00  4.3063649550416218e-05 -8.0863499740248140e-05 0.0000000000000000e+00  1.7266382099359465e-04 -9.9089319203980522e-03 0.0000000000000000e+00  -4.1052954431578025e-04 -7.1371244319227197e-03 0.0000000000000000e+00  1.6218042157309346e-04 -1.0968913227301246e-02 0.0000000000000000e+00  1.1664988437566656e-04 -1.4234229006519045e-02 0.0000000000000000e+00  1.4348842271952965e-04 -1.2043643816584985e-02 0.0000000000000000e+00  1.3065235410880034e-04 -1.3133154086542054e-02 0.0000000000000000e+00  -3.4348527553915246e-04 -6.1867292116182873e-03 0.0000000000000000e+00  1.7058234988242106e-04 -8.8747624631662341e-03 0.0000000000000000e+00  -3.0797769173998568e-04 -4.0504388686979304e-03 0.0000000000000000e+00  -3.7454094013420288e-04 -5.5652223945129742e-03 0.0000000000000000e+00  9.8243336492267428e-05 -1.6065899772738947e-02 0.0000000000000000e+00  -2.9776554925658847e-04 -3.5195447420499132e-03 0.0000000000000000e+00  4.9187836614093637e-05 -1.5330043711845527e-02 0.0000000000000000e+00  -1.6562690043761850e-04 -1.1919205439941416e-03 0.0000000000000000e+00  -1.4862875965562938e-04 -8.6822036103546027e-04 0.0000000000000000e+00  -6.4082375455655797e-04 -1.9021738869502314e-02 0.0000000000000000e+00  -6.4351105701425479e-04 -1.8324864694392949e-02 0.0000000000000000e+00  4.7750724528230321e-05 -1.3870745846411986e-02 0.0000000000000000e+00  6.2127750914253585e-05 -1.2773220716941336e-02 0.0000000000000000e+00  1.0672256969337251e-04 -1.0604532852200765e-02 0.0000000000000000e+00  5.0169397479726359e-05 -1.4967657904334210e-02 0.0000000000000000e+00  7.5500367101875867e-05 -1.1687902382383404e-02 0.0000000000000000e+00  1.2385455965255223e-04 -9.5513186215447701e-03 0.0000000000000000e+00  -3.4821325298395821e-04 -6.4998266975658673e-03 0.0000000000000000e+00  1.8665536722693962e-04 -1.8218993637210833e-03 0.0000000000000000e+00  -6.2632898068522020e-04 -1.7161445530016146e-02 0.0000000000000000e+00  -6.0264508263126084e-04 -1.6450940379886595e-02 0.0000000000000000e+00  1.9159331904134431e-04 -2.2504170261392377e-03 0.0000000000000000e+00  -4.33007581905