<?xml version="1.0"?>
<VTKFile type="UnstructuredGrid"  version="0.1"  >
<UnstructuredGrid>
<Piece  NumberOfPoints="439" NumberOfCells="725">
<Points>
<DataArray  type="Float64"  NumberOfComponents="3"  format="ascii">0.5760429885377261 0.07844799665106253 0  0.5848724397921646 0.09595140366110248 0  0.2489897949 0.21 0  0.2489897949 0.19 0  0.5804482111907829 0.0872001063807359 0  0.2496355385699469 0.2060260530378829 0  0.249959460510575 0.2020130349814059 0  0.2499594605105767 0.1979869650186357 0  0.24963553856995 0.1939739469621422 0  0.2540598511101802 0.2098979390303266 0  0.2591461394748344 0.20979101525802 0  0.2642357029833831 0.2096596209702596 0  0.2693270275898957 0.2094275335422824 0  0.274417678950037 0.2091377461896922 0  0.2795197565608404 0.2087671097950193 0  0.2846095738216262 0.2083487016384171 0  0.2896877213174467 0.2078485931240185 0  0.2947651450703172 0.2072804900010873 0  0.2998283842179645 0.2066416630395089 0  0.3048848657373057 0.2059034976325787 0  0.3099399113081153 0.2051422019998133 0  0.3149506489897962 0.2042708588431494 0  0.319971884370277 0.2033208549352888 0  0.324946942059786 0.2023155516817659 0  0.3299051587157716 0.2012140211607719 0  0.3348400814167157 0.2000592319659504 0  0.3397420039907983 0.198812665336682 0  0.3446203456820693 0.1975319769503663 0  0.3494724650572144 0.196176584756119 0  0.3542982340736386 0.1947752258938387 0  0.3590999015358291 0.1933345960703015 0  0.3638914743299648 0.1918351464847197 0  0.3686760517428398 0.1903373717975227 0  0.3734303144834624 0.1888008638354916 0  0.3781711708862266 0.1872568363955488 0  0.3828992118812396 0.1856919643261415 0  0.3876154850228776 0.1841122178519752 0  0.3923212584813856 0.1825176921918475 0  0.3970253128685399 0.1808952566731235 0  0.4017275918932089 0.179272482207544 0  0.4064185474250499 0.1776195716000594 0  0.4111086615096544 0.1759461335843773 0  0.4157962436869767 0.1742685211608492 0  0.4204729965986123 0.1725637816125242 0  0.4251489531941968 0.1708471601891668 0  0.4298147238803652 0.169109103266764 0  0.4344820320104136 0.1673455454874944 0  0.4391430643809916 0.1655624643227106 0  0.4438026090021021 0.1637424233977386 0  0.4484714735942733 0.1618943290607977 0  0.453145705038079 0.1600114742245274 0  0.4578275382809546 0.1580916734311833 0  0.4625214247366042 0.1561453607610755 0  0.4672242558741686 0.1541617925779725 0  0.4719369382690867 0.1521512176674927 0  0.4766520426038997 0.1501134983581632 0  0.4813692727311357 0.1480392568447993 0  0.4860780596266829 0.1459483476989449 0  0.4907750162917406 0.1438315399216673 0  0.4954591875275943 0.1416813194791016 0  0.5001165679416121 0.1395143864822666 0  0.5047517816860335 0.1373251640963838 0  0.5093645173796778 0.1351060920366788 0  0.5139478976983725 0.1328630113065654 0  0.5185110109239415 0.1305977101460176 0  0.5230513281703365 0.1282992646550168 0  0.5275622550532688 0.1259778748449964 0  0.5320555465432943 0.123619693031171 0  0.5365362552602601 0.1212436027233278 0  0.5409929715349612 0.1188677528836222 0  0.5454305315653454 0.1164743485875162 0  0.5498614453642242 0.1140748839869573 0  0.5542540370906436 0.1116942601249157 0  0.5586503882588245 0.1093336501058316 0  0.5630334546278484 0.1070345838306529 0  0.5674050246081108 0.1047380675124812 0  0.5717902820225874 0.1025003016992955 0  0.5761526512553492 0.1003023363682451 0  0.5805158845109462 0.09811620432093253 0  0.5717022732607794 0.08066017584934539 0  0.5673444398832205 0.08289994793946021 0  0.5629781376251011 0.0851571291838028 0  0.5586158807169765 0.08741374629025382 0  0.5542540393635265 0.0897106045891508 0  0.549878696949871 0.09198136988689548 0  0.5454939985606666 0.09427189029220583 0  0.5410993177324942 0.09656956294938143 0  0.5366888303112887 0.09884819477340019 0  0.5322647318962298 0.1011392715103426 0  0.5278220321410132 0.1034032292262897 0  0.5233830023936039 0.1056610840357013 0  0.5189067592676625 0.1079133957830218 0  0.5144060503838599 0.1101287995552588 0  0.5098997957708284 0.1123299015979372 0  0.5053570711568065 0.1145086427195981 0  0.5007979313207742 0.1166654136582935 0  0.4962207657879242 0.1188090298054729 0  0.4916139809868955 0.1209258679089121 0  0.4870024314400084 0.1230335142978464 0  0.4823714216504577 0.1251330917656016 0  0.4777249468888708 0.1272073501230337 0  0.4730876742542531 0.1292784973288547 0  0.4684388797580966 0.1313416671682884 0  0.4637940966700361 0.1333763016571211 0  0.4591685059837586 0.1354014309808318 0  0.4545447365999085 0.1374121027779249 0  0.4499397929245426 0.1393773053012105 0  0.4453473251747909 0.1413343340009039 0  0.4407558050941282 0.1432443387091879 0  0.4361787990826543 0.145103574447971 0  0.4316099544280252 0.1469447347403153 0  0.4270340614373742 0.148735061112521 0  0.4224508095279286 0.1504968922150715 0  0.4178621561005061 0.1522290758566971 0  0.4132654928947423 0.1539256870020298 0  0.40866918700073 0.1556123566146273 0  0.4040611727025401 0.1572714649706423 0  0.3994546027566627 0.1589131316673753 0  0.3948459262663276 0.160538364431967 0  0.3902324899412967 0.1621465034977414 0  0.3856108056955969 0.1637418077061036 0  0.3809855733317445 0.1653204798312461 0  0.376369915634305 0.1668871465441615 0  0.3717424761866538 0.1684370884927368 0  0.3671293384515968 0.1699622981918664 0  0.362510507575581 0.1714730751962423 0  0.3579028417690745 0.1729452419513133 0  0.3532925983877465 0.1743918162860366 0  0.3486825951002056 0.1757848206042906 0  0.3441003177180668 0.17713402189428 0  0.3394854069029306 0.1784158946208183 0  0.3348874900124258 0.1796167815292289 0  0.3302412926745207 0.1807650843508944 0  0.3255782002213271 0.1818099971073941 0  0.3209169386202653 0.1828323647263758 0  0.3162097745129345 0.1837526585658296 0  0.3115147968703872 0.1846021693886631 0  0.3067639339728178 0.1853973269849806 0  0.3019960911348354 0.18610492619292 0  0.2972050105057712 0.1867699818057151 0  0.2923947748498639 0.1873603591773594 0  0.2875982852641986 0.1879017964095674 0  0.2827659044040638 0.188381005432699 0  0.2779528136147695 0.1887964623773168 0  0.2731190257735903 0.1891406438641903 0  0.2683035968854162 0.189424576555832 0  0.2634745982349628 0.189660872116117 0  0.2586468885198724 0.1898247655568351 0  0.2538219669293131 0.1899016455615681 0  0.5782445246944562 0.08282373473767432 0  0.582667902266517 0.09157522013566244 0  0.2589979041313197 0.2004597637108099 0  0.5298058202121381 0.1133996688668822 0  0.5522208154465864 0.1015128035314167 0  0.2775762464573212 0.1997665792749756 0  0.5030656357241656 0.126705247736799 0  0.5166851669873757 0.1200320383450237 0  0.2945401213950568 0.1965902431240022 0  0.5649957632997856 0.09447749858966013 0  0.3104506928189454 0.1949880346727329 0  0.3365919042479555 0.1903522563416219 0  0.4892225086802724 0.1331715025208161 0  0.3538719161259231 0.184637505788447 0  0.4752241483458359 0.1394662858972017 0  0.3685326378308262 0.1800133778213518 0  0.3866387338890642 0.1739529971492198 0  0.4607133565727789 0.1453952530147206 0  0.4469634103436643 0.1516703212414097 0  0.4003097452635656 0.1693331687204451 0  0.4145757232254148 0.1641309484729419 0  0.4325133872533171 0.1574138341196464 0  0.3201380954555965 0.1932585455195708 0  0.5434466179969445 0.1061508064154723 0  0.4225134518867428 0.1610508831145224 0  0.3457958987806434 0.1871765375661414 0  0.3786422668680237 0.1768095941816247 0  0.2861662076276229 0.1982408543127604 0  0.5718395145685855 0.08959809642091666 0  0.2681030651285335 0.2012335465400111 0  0.4547992292753368 0.1508838159998 0  0.4828622595209021 0.1386890260566023 0  0.4968227078827108 0.1323021141709178 0  0.3928693087306337 0.1694434833786469 0  0.4688083417321379 0.1448975617170036 0  0.5105768793545891 0.1257216354057758 0  0.4408818201757082 0.1565716446600839 0  0.5241027652275451 0.1189081899762801 0  0.4068114607756517 0.1645414950088962 0  0.3602344669068335 0.1803196322299256 0  0.3031392248761298 0.1938701921439381 0  0.5575205756432401 0.09634190897157592 0  0.5351191357767072 0.1073889187950547 0  0.3284912530611871 0.1943748168157603 0  0.5362369116549246 0.1143476269041698 0  0.3290067482460552 0.1874038110558187 0  0.5234310872593382 0.1123549949573158 0  0.5099566864466213 0.1191141030456485 0  0.4962654003329573 0.1256611911380225 0  0.5622006393046513 0.1006478362679833 0  0.3018284941360988 0.2002440043791791 0  0.4683936923029419 0.1382531747016283 0  0.4823776322535371 0.1320319592780825 0  0.3928766043446094 0.1758985267278282 0  0.3599785515932751 0.1867630928150708 0  0.450340283698875 0.1460176248035793 0  0.440595912211865 0.1500412235840641 0  0.4068975388327157 0.1709924208743674 0  0.2557360670672651 0.1960489389539329 0  0.2550599756205962 0.2034150675779322 0  0.4302634193549247 0.1623259247976035 0  0.3710169838023362 0.1752252278230493 0  0.33888948262411 0.1848442137173613 0  0.2810449656342974 0.1946957327322624 0  0.2909481820010231 0.1937510190060293 0  0.4208075980908071 0.1660417619003335 0  0.3479238642311099 0.1823272041638004 0  0.3805051564390382 0.1718685907917613 0  0.315886998395583 0.1901500578007833 0  0.5485019712618758 0.1077192705999317 0  0.5453630461179636 0.1008433351985309 0  0.3168892723624535 0.1977817674507152 0  0.270890904030255 0.1953428299339663 0  0.5713152563864541 0.09694345811436039 0  0.4270597252097493 0.1546394049622982 0  0.4175671013869525 0.1586429050907706 0  0.3407113593494301 0.19331623270632 0  0.2813530993938568 0.2034402767923999 0  0.2920580441527974 0.2023925454023319 0  0.3737913393420147 0.1830079813924883 0  0.3501712445162719 0.1910647369987893 0  0.3832764086683985 0.180525020882757 0  0.2646885682679371 0.1958916863248456 0  0.5772371091122201 0.09322881265880811 0  0.5179657767490442 0.1146030497919446 0  0.5044048418705394 0.121269379783284 0  0.3077297441620966 0.1998360892951729 0  0.4906272508022889 0.1277359245159055 0  0.5572327169430157 0.103746700246929 0  0.4766892840253843 0.1340429590034803 0  0.4627493155827818 0.1401747014690744 0  0.365683041
[...]
<PointData  Vectors="d"> 
<DataArray  type="Float64"  Name="d"  NumberOfComponents="3" format="ascii">-2.3957011462273681e-02 -1.1155200334893747e-01 0.0000000000000000e+00  -1.5127560207835327e-02 -1.1404859633889750e-01 0.0000000000000000e+00  0.0000000000000000e+00 0.0000000000000000e+00 0.0000000000000000e+00  0.0000000000000000e+00 0.0000000000000000e+00 0.0000000000000000e+00  -1.9551788809217239e-02 -1.1279989361926424e-01 0.0000000000000000e+00  0.0000000000000000e+00 0.0000000000000000e+00 0.0000000000000000e+00  0.0000000000000000e+00 0.0000000000000000e+00 0.0000000000000000e+00  0.0000000000000000e+00 0.0000000000000000e+00 0.0000000000000000e+00  0.0000000000000000e+00 0.0000000000000000e+00 0.0000000000000000e+00  1.2625050455118147e-04 -1.0206096967334080e-04 0.0000000000000000e+00  2.6873316358030209e-04 -2.0898474197996562e-04 0.0000000000000000e+00  4.1449096649100062e-04 -3.4037902974025846e-04 0.0000000000000000e+00  5.6200986736569525e-04 -5.7246645771762974e-04 0.0000000000000000e+00  7.0885552187989855e-04 -8.6225381030782821e-04 0.0000000000000000e+00  8.6712742706493678e-04 -1.2328902049806197e-03 0.0000000000000000e+00  1.0131389822324885e-03 -1.6512983615827889e-03 0.0000000000000000e+00  1.1474807724300732e-03 -2.1514068759815024e-03 0.0000000000000000e+00  1.2810988196649267e-03 -2.7195099989126715e-03 0.0000000000000000e+00  1.4005322616936159e-03 -3.3583369604911436e-03 0.0000000000000000e+00  1.5132080754060174e-03 -4.0965023674213834e-03 0.0000000000000000e+00  1.6244479405972867e-03 -4.8577980001865929e-03 0.0000000000000000e+00  1.6913799166595586e-03 -5.7291411568507079e-03 0.0000000000000000e+00  1.7688095915220259e-03 -6.6791450647111159e-03 0.0000000000000000e+00  1.8000615754128187e-03 -7.6844483182339565e-03 0.0000000000000000e+00  1.8144725257800730e-03 -8.7859788392280740e-03 0.0000000000000000e+00  1.8055895210949008e-03 -9.9407680340495228e-03 0.0000000000000000e+00  1.7637063895697910e-03 -1.1187334663318022e-02 0.0000000000000000e+00  1.6982423752115935e-03 -1.2468023049633575e-02 0.0000000000000000e+00  1.6065560447385266e-03 -1.3823415243880999e-02 0.0000000000000000e+00  1.4885193555441497e-03 -1.5224774106161344e-02 0.0000000000000000e+00  1.3463811121165884e-03 -1.6665403929698504e-02 0.0000000000000000e+00  1.1941482006338183e-03 -1.8164853515280202e-02 0.0000000000000000e+00  1.0349199078901509e-03 -1.9662628202477290e-02 0.0000000000000000e+00  8.4537694288370135e-04 -2.1199136164508355e-02 0.0000000000000000e+00  6.4242764003898426e-04 -2.2743163604451267e-02 0.0000000000000000e+00  4.2666292942747272e-04 -2.4308035673858579e-02 0.0000000000000000e+00  1.9913036544372807e-04 -2.5887782148024722e-02 0.0000000000000000e+00  -3.8901881677588718e-05 -2.7482307808152518e-02 0.0000000000000000e+00  -2.7865320013051005e-04 -2.9104743326876528e-02 0.0000000000000000e+00  -5.2017988108950578e-04 -3.0727517792456121e-02 0.0000000000000000e+00  -7.7303005486104200e-04 -3.2380428399940528e-02 0.0000000000000000e+00  -1.0267216758765266e-03 -3.4053866415622823e-02 0.0000000000000000e+00  -1.2829452041750917e-03 -3.5731478839150885e-02 0.0000000000000000e+00  -1.5499979981511845e-03 -3.7436218387475857e-02 0.0000000000000000e+00  -1.8178471081950929e-03 -3.9152839810833111e-02 0.0000000000000000e+00  -2.0958821276597628e-03 -4.0890896733235954e-02 0.0000000000000000e+00  -2.3723797032636305e-03 -4.2654454512505567e-02 0.0000000000000000e+00  -2.6551530383412572e-03 -4.4437535677289336e-02 0.0000000000000000e+00  -2.9394141228946489e-03 -4.6257576602261222e-02 0.0000000000000000e+00  -3.2143552363713295e-03 -4.8105670939202309e-02 0.0000000000000000e+00  -3.4839294982073740e-03 -4.9988525775472747e-02 0.0000000000000000e+00  -3.7459019609613789e-03 -5.1908326568816693e-02 0.0000000000000000e+00  -3.9958212109623310e-03 -5.3854639238924508e-02 0.0000000000000000e+00  -4.2367957790312464e-03 -5.5838207422027435e-02 0.0000000000000000e+00  -4.4679190897800774e-03 -5.7848782332507218e-02 0.0000000000000000e+00  -4.6966204606136751e-03 -5.9886501641836801e-02 0.0000000000000000e+00  -4.9231960390404474e-03 -6.1960743155200768e-02 0.0000000000000000e+00  -5.1582148491235791e-03 -6.4051652301055084e-02 0.0000000000000000e+00  -5.4050638897204647e-03 -6.6168460078332658e-02 0.0000000000000000e+00  -5.6646983594950311e-03 -6.8318680520898428e-02 0.0000000000000000e+00  -5.9511236511370028e-03 -7.0485613517733359e-02 0.0000000000000000e+00  -6.2597156123539487e-03 -7.2674835903616175e-02 0.0000000000000000e+00  -6.5907856243264821e-03 -7.4893907963321293e-02 0.0000000000000000e+00  -6.9512110112690531e-03 -7.7136988693434730e-02 0.0000000000000000e+00  -7.3319034913592266e-03 -7.9402289853982219e-02 0.0000000000000000e+00  -7.7353919506029821e-03 -8.1700735344983233e-02 0.0000000000000000e+00  -8.1682707733298915e-03 -8.4022125155003652e-02 0.0000000000000000e+00  -8.6187849889424670e-03 -8.6380306968829021e-02 0.0000000000000000e+00  -9.0818819775931731e-03 -8.8756397276672047e-02 0.0000000000000000e+00  -9.5689714085296085e-03 -9.1132247116377935e-02 0.0000000000000000e+00  -1.0075217083800088e-02 -9.3525651412483632e-02 0.0000000000000000e+00  -1.0588108990564430e-02 -9.5925116013042849e-02 0.0000000000000000e+00  -1.1139322969804738e-02 -9.8305739875084314e-02 0.0000000000000000e+00  -1.1686777507287008e-02 -1.0066634989416831e-01 0.0000000000000000e+00  -1.2247516843897480e-02 -1.0296541616934722e-01 0.0000000000000000e+00  -1.2819752569272973e-02 -1.0526193248751875e-01 0.0000000000000000e+00  -1.3378300860446635e-02 -1.0749969830070449e-01 0.0000000000000000e+00  -1.3959737333331442e-02 -1.0969766363175484e-01 0.0000000000000000e+00  -1.4540309783394306e-02 -1.1188379567906752e-01 0.0000000000000000e+00  -2.3353921033603873e-02 -1.0933982415065456e-01 0.0000000000000000e+00  -2.2767948705537621e-02 -1.0710005206053977e-01 0.0000000000000000e+00  -2.2190445258018290e-02 -1.0484287081619717e-01 0.0000000000000000e+00  -2.1608896460496140e-02 -1.0258625370974611e-01 0.0000000000000000e+00  -2.1026932108324861e-02 -1.0028939541084923e-01 0.0000000000000000e+00  -2.0458468816360601e-02 -9.8018630113104577e-02 0.0000000000000000e+00  -1.9899361499951699e-02 -9.5728109707794190e-02 0.0000000000000000e+00  -1.9350236622494580e-02 -9.3430437050618556e-02 0.0000000000000000e+00  -1.8816918338069075e-02 -9.1151805226599839e-02 0.0000000000000000e+00  -1.8297211047474018e-02 -8.8860728489657426e-02 0.0000000000000000e+00  -1.7796105097091192e-02 -8.6596770773710169e-02 0.0000000000000000e+00  -1.7291329138900791e-02 -8.4338915964298794e-02 0.0000000000000000e+00  -1.6823766559233629e-02 -8.2086604216978235e-02 0.0000000000000000e+00  -1.6380669737403070e-02 -7.9871200444741122e-02 0.0000000000000000e+00  -1.5943118644834338e-02 -7.7670098402062751e-02 0.0000000000000000e+00  -1.5542037553217959e-02 -7.5491357280401780e-02 0.0000000000000000e+00  -1.5157371683647770e-02 -7.3334586341706517e-02 0.0000000000000000e+00  -1.4790731510898403e-02 -7.1190970194526998e-02 0.0000000000000000e+00  -1.4453710606321791e-02 -6.9074132091087953e-02 0.0000000000000000e+00  -1.4121454447572115e-02 -6.6966485702153536e-02 0.0000000000000000e+00  -1.3808658531514294e-02 -6.4866908234398404e-02 0.0000000000000000e+00  -1.3511327587482190e-02 -6.2792649876966325e-02 0.0000000000000000e+00  -1.3204794516481200e-02 -6.0721502671145192e-02 0.0000000000000000e+00  -1.2909783307007979e-02 -5.8658332831711645e-02 0.0000000000000000e+00  -1.2610760689460558e-02 -5.6623698342878906e-02 0.0000000000000000e+00  -1.2292545670109777e-02 -5.4598569019168250e-02 0.0000000000000000e+00  -1.1972509348346982e-02 -5.2587897222075131e-02 0.0000000000000000e+00  -1.1633647318092490e-02 -5.0622694698789300e-02 0.0000000000000000e+00  -1.1282309362219339e-02 -4.8665665999096087e-02 0.0000000000000000e+00  -1.0930023737252785e-02 -4.6755661290812017e-02 0.0000000000000000e+00  -1.0563224043117396e-02 -4.4896425552028975e-02 0.0000000000000000e+00  -1.0188262992121413e-02 -4.3055265259684769e-02 0.0000000000000000e+00  -9.8203502771555679e-03 -4.1264938887478959e-02 0.0000000000000000e+00  -9.4597964809844982e-03 -3.9503107784928528e-02 0.0000000000000000e+00  -9.1046442027802668e-03 -3.7770924143302881e-02 0.0000000000000000e+00  -8.7575017029059444e-03 -3.6074312997970176e-02 0.0000000000000000e+00  -8.4100018912758104e-03 -3.4387643385372660e-02 0.0000000000000000e+00  -8.0742104838191688e-03 -3.2728535029357790e-02 0.0000000000000000e+00  -7.7369747240369933e-03 -3.1086868332624695e-02 0.0000000000000000e+00  -7.4018455087201777e-03 -2.9461635568033093e-02 0.0000000000000000e+00  -7.0714761280934579e-03 -2.7853496502258750e-02 0.0000000000000000e+00  -6.7493546681578285e-03 -2.6258192293896313e-02 0.0000000000000000e+00  -6.4307813263636973e-03 -2.4679520168753979e-02 0.0000000000000000e+00  -6.1026333181770608e-03 -2.3112853455838512e-02 0.0000000000000000e+00  -5.7862670601720092e-03 -2.1562911507263170e-02 0.0000000000000000e+00  -5.4555990895803841e-03 -2.0037701808133520e-02 0.0000000000000000e+00  -5.1306242599274661e-03 -1.8526924803757609e-02 0.0000000000000000e+00  -4.7944843607870468e-03 -1.7054758048686648e-02 0.0000000000000000e+00  -4.4609220364643393e-03 -1.5608183713963258e-02 0.0000000000000000e+00  -4.1271196183834524e-03 -1.4215179395709493e-02 0.0000000000000000e+00  -3.7655912948641834e-03 -1.2865978105720035e-02 0.0000000000000000e+00  -3.4366964043612775e-03 -1.1584105379181742e-02 0.0000000000000000e+00  -3.0908075892277817e-03 -1.0383218470771203e-02 0.0000000000000000e+00  -2.7931992214943924e-03 -9.2349156491054150e-03 0.0000000000000000e+00  -2.5124859690475818e-03 -8.1900028926060083e-03 0.0000000000000000e+00  -2.2299418644517836e-03 -7.1676352736241991e-03 0.0000000000000000e+00  -1.9933002661244800e-03 -6.2473414341703360e-03 0.0000000000000000e+00  -1.7444722030138557e-03 -5.3978306113369248e-03 0.0000000000000000e+00  -1.5515293949403916e-03 -4.6026730150194300e-03 0.0000000000000000e+00  -1.3755665272842195e-03 -3.8950738070799751e-03 0.0000000000000000e+00  -1.2228414507100978e-03 -3.2300181942849409e-03 0.0000000000000000e+00  -1.0892714009790414e-03 -2.6396408226405117e-03 0.0000000000000000e+00  -9.4195528098885086e-04 -2.0982035904325473e-03 0.0000000000000000e+00  -8.3053043546582497e-04 -1.6189945673010309e-03 0.0000000000000000e+00  -6.9981551910210614e-04 -1.2035376226832649e-03 0.0000000000000000e+00  -5.8979765463412586e-04 -8.5935613580961131e-04 0.0000000000000000e+00  -4.6142083716992191e-04 -5.7542344416814111e-04 0.0000000000000000e+00  -3.4661378198486348e-04 -3.3912788388299533e-04 0.0000000000000000e+00  -2.3051779143679494e-04 -1.7523444316485878e-04 0.0000000000000000e+00  -1.1163367634481706e-04 -9.8354438431926520e-05 0.0000000000000000e+00  -2.1755475305543670e-02 -1.1217626526230395e-01 0.0000000000000000e+00  -1.7332097733483324e-02 -1.1342477986431039e-01 0.0000000000000000e+00  2.4477599670434206e-05 -9.2625632030434433e-05 0.0000000000000000e+00  -1.3340414173169184e-02 -8.6600331133086794e-02 0.0000000000000000e+00  -1.6018974030229644e-02 -9.8457655049481965e-02 0.0000000000000000e+00  1.2485374551879174e-04 -1.0276126672171253e-03 0.0000000000000000e+00  -1.0783947652731343e-02 -7.3197094912292829e-02 0.0000000000000000e+00  -1.1995833506362198e-02 -7.9870304304073103e-02 0.0000000000000000e+00  2.9226189292266677e-05 -2.7009477165365228e-03 0.0000000000000000e+00  -1.7782319838706848e-02 -1.0506548151067480e-01 0.0000000000000000e+00  3.7853162019982606e-05 -4.9824239081649006e-03 0.0000000000000000e+00  -4.0827129389954612e-04 -1.0477204901774900e-02 0.0000000000000000e+00  -9.7956575797735410e-03 -6.6730840128274210e-02 0.0000000000000000e+00  -1.4097014449814028e-03 -1.5362494211613965e-02 0.0000000000000000e+00  -8.9626007973567529e-03 -6.0436056751883224e-02 0.0000000000000000e+00  -2.2047335597289801e-03 -2.0000859874017011e-02 0.0000000000000000e+00  -3.2495236211852424e-03 -2.6047002850863088e-02 0.0000000000000000e+00  -8.2723984764945992e-03 -5.4146419410948721e-02 0.0000000000000000e+00  -7.1943213405321598e-03 -4.8329678758499875e-02 0.0000000000000000e+00  -4.0437461382675285e-03 -3.0764488630479331e-02 0.0000000000000000e+00  -4.9753685185419186e-03 -3.5869051527163770e-02 0.0000000000000000e+00  -6.1885906111341024e-03 -4.2571928185030798e-02 0.0000000000000000e+00  -1.0917957007368741e-04 -6.7503386950691149e-03 0.0000000000000000e+00  -1.4958736111140665e-02 -9.3840309369885397e-02 0.0000000000000000e+00  -5.5532628019708298e-03 -3.8798021706301707e-02 0.0000000000000000e+00  -9.7009584590402817e-04 -1.2974557613295957e-02 0.0000000000000000e+00  -2.7303676978669279e-03 -2.3341500997827277e-02 0.0000000000000000e+00  9.7869935413225754e-05 -1.8006902578577102e-03 0.0000000000000000e+00  -1.9282866609534131e-02 -1.0864681951395774e-01 0.0000000000000000e+00  1.1374898267081604e-04 -4.4157910671800070e-04 0.0000000000000000e+00  -6.7742109672911032e-03 -5.1366547329000346e-02 0.0000000000000000e+00  -8.3740149554431560e-03 -6.3561337272206864e-02 0.0000000000000000e+00  -9.2449837104872853e-03 -6.9948249157894007e-02 0.0000000000000000e+00  -4.4346573380438965e-03 -2.8306153292549575e-02 0.0000000000000000e+00  -7.5965156273516063e-03 -5.7352801611801417e-02 0.0000000000000000e+00  -1.0322229355456623e-02 -7.6528727923042772e-02 0.0000000000000000e+00  -5.8602029500575085e-03 -4.5678718668716048e-02 0.0000000000000000e+00  -1.1627760599339478e-02 -8.3342173352539767e-02 0.0000000000000000e+00  -5.3239224098797690e-03 -3.3208141662301474e-02 0.0000000000000000e+00  -2.4628592225019027e-03 -1.7430004441266276e-02 0.0000000000000000e+00  -2.3243278576617560e-04 -3.8794445272487847e-03 0.0000000000000000e+00  -1.7760395828582787e-02 -1.0140772769957446e-01 0.0000000000000000e+00  -1.5340720142348970e-02 -8.9739559678711972e-02 0.0000000000000000e+00  2.9847984650278512e-04 -8.4967047104803836e-03 0.0000000000000000e+00  -1.2180990394821390e-02 -8.9492694665306516e-02 0.0000000000000000e+00  -1.2279788379436537e-03 -8.7558673747303271e-03 0.0000000000000000e+00  -1.4489997964473330e-02 -8.3770186707095282e-02 0.0000000000000000e+00  -1.3132981660343893e-02 -7.7011078618757264e-02 0.0000000000000000e+00  -1.1992850657164721e-02 -7.0463990526387257e-02 0.0000000000000000e+00  -1.5270891564057743e-02 -1.0322698206760535e-01 0.0000000000000000e+00  6.4739587114414276e-04 -3.6308139564146268e-03 0.0000000000000000e+00  -1.0201724453469162e-02 -5.7872006962775752e-02 0.0000000000000000e+00  -1.1049201619730021e-02 -6.4093222386323770e-02 0.0000000000000000e+00  -2.2368023271536158e-03 -2.7976291607768353e-02 0.0000000000000000e+00  -5.2821513913661549e-04 -1.7111725520524222e-02 0.0000000000000000e+00  -9.0425971468394272e-03 -5.0107556860819968e-02 0.0000000000000000e+00  -8.3366703108152494e-03 -4.6083958080336523e-02 0.0000000000000000e+00  -3.0472849559062438e-03 -3.2882397461231630e-02 0.0000000000000000e+00  -5.0232912931849017e-05 -3.6898071796620886e-05 0.0000000000000000e+00  4.5239589656396977e-05 -2.7575421179239091e-05 0.0000000000000000e+00  -4.5397282915443102e-03 -4.1447832966551926e-02 0.0000000000000000e+00  -3.6192178060737755e-03 -2.1001014412805982e-02 0.0000000000000000e+00  -1.7363539623206717e-03 -1.1202578476627700e-02 0.0000000000000000e+00  -2.5520248468598818e-04 -1.3510594617876812e-03 0.0000000000000000e+00  -3.2045674296607624e-04 -2.3306138588989295e-03 0.0000000000000000e+00  -3.8629354911821467e-03 -3.7911445905620851e-02 0.0000000000000000e+00  -2.2383115018028837e-03 -1.3719588030387312e-02 0.0000000000000000e+00  -4.2636592332310824e-03 -2.4178201402474682e-02 0.0000000000000000e+00  -7.4537014277310885e-04 -6.0094007625866933e-03 0.0000000000000000e+00  -1.3653029843465322e-02 -9.6062378659967390e-02 0.0000000000000000e+00  -1.7078341584013276e-02 -9.5232857162606752e-02 0.0000000000000000e+00  6.4976877914073349e-04 -6.0861882917539233e-03 0.0000000000000000e+00  -1.9780939050714722e-04 -6.2681439861744293e-04 0.0000000000000000e+00  -1.5986181253906582e-02 -1.0777932998872192e-01 0.0000000000000000e+00  -7.6082314345216817e-03 -4.0825740992953205e-02 0.0000000000000000e+00  -6.7625490208462801e-03 -3.7232793003135527e-02 0.0000000000000000e+00  4.5540826607779638e-04 -1.1477817322772298e-02 0.0000000000000000e+00  4.8460671776351361e-04 -1.3339649888657358e-03 0.0000000000000000e+00  6.5034083892519126e-04 -2.3884063047636080e-03 0.0000000000000000e+00  -9.8005326847866859e-04 -2.1526872652367010e-02 0.0000000000000000e+00  2.4959562638522323e-04 -1.4110604319841265e-02 0.0000000000000000e+00  -1.2518801608311300e-03 -2.4650320435878999e-02 0.0000000000000000e+00  -1.2591827756842436e-04 -3.1728797379184103e-04 0.0000000000000000e+00  -1.7087655254069113e-02 -1.1081272970011002e-01 0.0000000000000000e+00  -1.4131484296570148e-02 -8.1041460113142658e-02 0.0000000000000000e+00  -1.2861002058233172e-02 -7.4375130121801400e-02 0.0000000000000000e+00  7.3741860183082757e-04 -4.5107140920822193e-03 0.0000000000000000e+00  -1.1807176009637346e-02 -6.7908585389180889e-02 0.0000000000000000e+00  -1.4427586630419266e-02 -1.0060010314034713e-01 0.0000000000000000e+00  -1.0913725669689801e-02 -6.1601550901602846e-02 0.0000000000000000e+00  -1.0065881946844371e-02 -5.5465545421914939e-02 0.0000000000000000e+00  -6.4713614594221847e-04 -1.8902543555124950e-02 0.0000000000000000e+00  -9.6012001933353120e-03 -5.2368935249548138e-02 0.0000000000000000e+00  -2.3927561858014170e-03 -2.9914696665638431e-02 0.0000000000000000e+00  -8.1306933926381629e-03 -4.3890319968027565e-02 0.0000000000000000e+00  -3.2059132914957701e-03 -3.4882230183765767e-02 0.0000000000000000e+00  -1.9883783420100363e-02 -1.0622936622391561e-01 0.0000000000000000e+00  -1.2507549588434003e-02 -9.2309384405722783e-02 0.0000000000000000e+00  -1.1283260033580135e-03 -7.5127695458865572e-03 0.0000000000000000e+00  3.4597408426440619e-04 -6.7863080020478964e-04 0.0000000000000000e+00  1.7216346408321467e-04 -2.5113825936152426e-04 0.0000000000000000e+00  -5.5602204250664164e-03 -4.9663354813597474e-02 0.0000000000000000e+00  -6.4083978350435063e-03 -3.4626666506275737e-02 0.0000000000000000e+00  -6.3816958215769295e-03 -5.5554008640117905e-02 0.0000000000000000e+00  -8.9578479231314095e-03 -7.4554857402661129e-02 0.0000000000000000e+00  -7.1697599461739885e-03 -6.1684906816462826e-02 0.0000000000000000e+00  -7.9715295360980373e-03 -6.8023163692644245e-02 0.0000000000000000e+00  -5.2830943151562669e-03 -2.9833034809436578e-02 0.0000000000000000e+00  -4.7252981492740195e-03 -4.4118634413624014e-02 0.0000000000000000e+00  -3.3979376455661073e-03 -1.8731078924345154e-02 0.0000000000000000e+00  -4.9580187405700816e-03 -2.6618005355860421e-02 0.0000000000000000e+00  -1.1024539422366669e-02 -8.5812910685064539e-02 0.0000000000000000e+00  -2.8922588445092628e-03 -1.5898225180697799e-02 0.0000000000000000e+00  -1.0463461345332764e-02 -8.1166048124210854e-02 0.0000000000000000e+00  -6.4429538582323959e-04 -4.5552811117415253e-03 0.0000000000000000e+00  -5.0841042644912920e-04 -3.2146019532804668e-03 0.0000000000000000e+00  -1.9186952972927301e-02 -1.0310927312111623e-01 0.0000000000000000e+00  -1.8276537866895152e-02 -9.8886465310669330e-02 0.0000000000000000e+00  -9.0307140490532255e-03 -7.2319843863027353e-02 0.0000000000000000e+00  -8.1062718215619382e-03 -6.5857530513842744e-02 0.0000000000000000e+00  -6.4367608573430296e-03 -5.3457697906971406e-02 0.0000000000000000e+00  -1.0064908486501628e-02 -7.8943534090415587e-02 0.0000000000000000e+00  -7.3270501425818030e-03 -5.9581741395331338e-02 0.0000000000000000e+00  -5.5418058316739341e-03 -4.7677980418553804e-02 0.0000000000000000e+00  -5.5584002574434223e-03 -3.1428086381031645e-02 0.0000000000000000e+00  7.5077869964422625e-04 -7.5461610065729054e-03 0.0000000000000000e+00  -1.6626573714643877e-02 -9.1725125837411020e-02 0.0000000000000000e+00  -1.5567642222016311e-02 -8.7342531898069578e-02 0.0000000000000000e+00  5.7901255582