<?xml version="1.0"?>
<VTKFile type="UnstructuredGrid"  version="0.1"  >
<UnstructuredGrid>
<Piece  NumberOfPoints="439" NumberOfCells="725">
<Points>
<DataArray  type="Float64"  NumberOfComponents="3"  format="ascii">0.6001458802262014 0.1921689351245324 0  0.5992514465673012 0.2122542598652764 0  0.2489897949 0.21 0  0.2489897949 0.19 0  0.5996991844367129 0.2022107187070944 0  0.2496355385699469 0.2060260530378829 0  0.249959460510575 0.2020130349814059 0  0.2499594605105767 0.1979869650186357 0  0.24963553856995 0.1939739469621422 0  0.2539612984069116 0.2099735845953223 0  0.2589311599377385 0.2099388316169667 0  0.2638980007409203 0.2098947782018529 0  0.2688591737410445 0.2098303167448799 0  0.2738150543497774 0.209757802365861 0  0.2787683924596752 0.2096735487135362 0  0.2837171646951772 0.2095861937387098 0  0.2886616765205642 0.2094922332201944 0  0.2936034548334824 0.2093949168887849 0  0.2985423798760812 0.2092956980137536 0  0.3034792793141925 0.2091956051077415 0  0.3084144640392226 0.2090963505078214 0  0.3133476525405557 0.208998028009103 0  0.318278530970927 0.2089021909537931 0  0.3232091373213561 0.2088082306367171 0  0.3281382007549205 0.208717978649569 0  0.3330668093812008 0.2086297650264304 0  0.3379950345981246 0.2085452185136503 0  0.3429231218134483 0.20846314722915 0  0.3478510700053648 0.2083852050429522 0  0.3527790071673922 0.2083104866933259 0  0.357706822036361 0.2082394090501288 0  0.3626318117924047 0.2081754456799158 0  0.3675556650548654 0.2081118605758702 0  0.3724780370784344 0.2080537684677141 0  0.3773997652745255 0.2079990005421676 0  0.3823193265654934 0.2079494915234268 0  0.3872383737094661 0.207904501140153 0  0.3921577251428013 0.2078656491832312 0  0.3970768326955467 0.2078384576451875 0  0.4019943562183435 0.2078133645406375 0  0.4069173189497905 0.2078010612429793 0  0.4118402234383189 0.2078017701897027 0  0.4167627361540611 0.2078051382023635 0  0.4216902397457756 0.2078234303403364 0  0.4266147301454796 0.2078473307833983 0  0.4315438490339105 0.2078809484041044 0  0.4364709121666969 0.2079215544118241 0  0.4414013025688657 0.2079686515886064 0  0.4463332888471285 0.2080223009779252 0  0.4512658337699345 0.2080806009986116 0  0.4561997889035002 0.2081436674326642 0  0.4611359063768815 0.2082131090631765 0  0.4660730012377887 0.2082865743158134 0  0.4710120692531885 0.2083644261907652 0  0.4759515579317912 0.2084479388270239 0  0.480892382239016 0.2085346965174756 0  0.4858343670925779 0.2086245416380155 0  0.4907738339158346 0.2087165937783637 0  0.4957123337991713 0.2088106889688214 0  0.5006488208964988 0.2089061186994636 0  0.505580391479354 0.2090011562114544 0  0.5105072811085841 0.2090982064539669 0  0.5154282460194138 0.2091977400128362 0  0.520344996487389 0.2092994026626702 0  0.5252555211505557 0.2094070009624105 0  0.5301607568816552 0.2095221835375343 0  0.5350636181599618 0.2096474128445996 0  0.53996926400199 0.2097809569424815 0  0.5448784668342999 0.2099321475410524 0  0.5497879370960953 0.2101018861337633 0  0.554700862948004 0.2102725465760619 0  0.5596273762628805 0.2104676874892851 0  0.5645556135236877 0.2106711277773475 0  0.5694971874036301 0.2108833126468059 0  0.5744458933359882 0.2111094734223737 0  0.5793998547249021 0.2113340516867515 0  0.5843608395882917 0.2115657702233398 0  0.5893239520966592 0.2117982972796608 0  0.5942875237928611 0.2120271914153437 0  0.5951774973227685 0.1919480216050987 0  0.5902033662849304 0.1917259178072902 0  0.5852258241538113 0.1915013033309162 0  0.5802460779613247 0.1912830773105377 0  0.5752650937654048 0.1910724498324408 0  0.5702878173563013 0.1908661176844633 0  0.5653146795214153 0.1906735939398956 0  0.5603410858970754 0.1904928261277182 0  0.5553808144245072 0.1903180137529436 0  0.5504243163789937 0.1901588823902028 0  0.5454762021333307 0.1900027527720033 0  0.5405376606421202 0.1898625127709485 0  0.5355987336039334 0.1897323642990928 0  0.5306642303584557 0.189596874803396 0  0.5257359759590647 0.1894769389184509 0  0.5208040366297211 0.1893612815517716 0  0.5158733514904099 0.1892418506762568 0  0.5109409947994806 0.1891327974741809 0  0.5060037150451931 0.1890246968353212 0  0.5010650506831702 0.1889164204251748 0  0.496120374926826 0.1888154224176756 0  0.4911728968625395 0.1887161127445242 0  0.4862240542651903 0.1886206844738644 0  0.4812707095446809 0.1885307257261545 0  0.4763177366406096 0.1884434948951762 0  0.4713653411940127 0.1883617707839941 0  0.4664105973170511 0.1882835440107356 0  0.4614574413210407 0.1882093794234358 0  0.4565047668521289 0.1881382968007218 0  0.451551847791035 0.1880710270060497 0  0.4465957034536233 0.1880087592394039 0  0.4416398393982003 0.187949132512393 0  0.4366811453252338 0.1878968914530519 0  0.4317220073049918 0.1878499858685222 0  0.4267596924430113 0.1878117619254956 0  0.4217970249949194 0.1877860691254458 0  0.4168314527983305 0.187767625675801 0  0.4118687578158949 0.1877624664601225 0  0.4069067479197948 0.1877677314933795 0  0.4019472032808486 0.1877841624675487 0  0.3969926080140692 0.1878101408100741 0  0.3920436609575693 0.1878423361386761 0  0.3870983395729742 0.1878812698253099 0  0.382151391677322 0.1879245979684001 0  0.377208779155826 0.1879719709559389 0  0.3722635949806712 0.1880253243500894 0  0.3673194378574857 0.1880815842989982 0  0.3623733666253424 0.1881440795892992 0  0.3574280807600474 0.1882108121675825 0  0.3524833361432179 0.1882835096167337 0  0.3475376590228341 0.1883600734603409 0  0.3425953829401733 0.1884409137918077 0  0.3376528646607709 0.1885255465559142 0  0.3327129704655309 0.1886116312743584 0  0.3277727069648317 0.1887013276980412 0  0.3228324673771494 0.1887915137911489 0  0.3178929592863859 0.1888860325983303 0  0.3129539144259195 0.1889829792199844 0  0.308017091444314 0.1890819782239649 0  0.3030822972581586 0.1891818163638409 0  0.298149911022077 0.1892818042889929 0  0.2932195875314097 0.1893803787205076 0  0.28829235921243 0.1894779264332496 0  0.283366271749403 0.1895706323692097 0  0.2784459441626188 0.1896601814759147 0  0.2735273952565516 0.1897395976845158 0  0.2686158590119366 0.1898109341180368 0  0.2637048128639566 0.1898738618652841 0  0.258796449451444 0.1899225505051139 0  0.2538916737778525 0.1899562077055566 0  0.5999225006908953 0.1971902333093275 0  0.5994767481630829 0.2072325069529515 0  0.2589656635909945 0.2005073020110673 0  0.5427249643011711 0.1998490961140016 0  0.5677970913232648 0.2007216390165897 0  0.277419391802089 0.2004943611938849 0  0.5135636158677535 0.1990616084756634 0  0.5283293447360482 0.1993778085476823 0  0.2944244335093004 0.1986623694176494 0  0.5824127698588887 0.200951964140035 0  0.3103087787799301 0.1990167146898234 0  0.3368631366333876 0.1993780237827834 0  0.498762976324663 0.1987693542880004 0  0.3550986392678397 0.1982550507836662 0  0.4839292540116855 0.1984916255491933 0  0.3705288004608608 0.1980668401273088 0  0.3896295756962749 0.1978653838257759 0  0.468721383915139 0.1978726111092764 0  0.4538801307452514 0.1981114971940816 0  0.4040690815659363 0.1978785937649599 0  0.4192653682875709 0.1977833599145297 0  0.4384242741950347 0.1979090986761034 0  0.3201271230734113 0.1988604668257361 0  0.5579489907625371 0.2003433939011922 0  0.427785708486556 0.1976783399743908 0  0.3465990735170001 0.19853622842556 0  0.3811384245536336 0.1980915064257105 0  0.2860103243258887 0.1995793982611409 0  0.5908583048148461 0.2000408321179665 0  0.2679801562848839 0.2015250150038017 0  0.4612616475684562 0.2004662417869145 0  0.4909351668118953 0.2009685545989167 0  0.5057510747184932 0.2012531697417834 0  0.3970205224460351 0.1955610350214149 0  0.4760975134153464 0.2007019628456632 0  0.5205282334527755 0.2015513379953378 0  0.4464349572294285 0.2002672031464025 0  0.5352794056665081 0.2018914734093508 0  0.4118509943797236 0.1955167311614761 0  0.3624744266898624 0.1958986625728879 0  0.3032379395072827 0.196938047668823 0  0.5749514097627283 0.1988094888990877 0  0.550106590482782 0.1972155514632967 0  0.3281104494391993 0.2015780876024462 0  0.5478540924797695 0.2038457665075187 0  0.3300279218009189 0.1948241698234444 0  0.5376290370283084 0.1958505934810957 0  0.5228546650569872 0.1954922699980457 0  0.5080687918343321 0.1951797306422216 0  0.5769023875511657 0.2050488855534579 0  0.3011704447881058 0.2031121953896086 0  0.4784014223982634 0.1946154362368231 0  0.4932479080615284 0.1948865579274393 0  0.3948609058124126 0.201707915162526 0  0.3603668348003475 0.2020633406142219 0  0.4591672143786524 0.1943099267867383 0  0.4487067750528468 0.194165746042522 0  0.4096552528873869 0.2016535742367445 0  0.2557651780600767 0.1960594859758312 0  0.2550196508932197 0.2034260914961615 0  0.4344883299439612 0.2016646814456389 0  0.3743808980113295 0.1942309330199675 0  0.3404018872471848 0.1945295530961176 0  0.2811850687650957 0.1956718520630568 0  0.2911292976726636 0.1955148748529909 0  0.4243638575259495 0.2017708283999843 0  0.3499264189876433 0.1943738766595556 0  0.3844938239895759 0.1939512305027541 0  0.3164440123624556 0.1950787381308575 0  0.5615594024615 0.2042851234659681 0  0.5621298199605423 0.1965969687787867 0  0.3162005542967878 0.2028008996886255 0  0.2710030077797468 0.1957658789906639 0  0.5867361712815146 0.2063643369020546 0  0.4344338589201657 0.1933439046072894 0  0.4240717675058337 0.1936752015430482 0  0.3401781223009247 0.2032921291682093 0  0.2808970533793432 0.2044134341810699 0  0.2914287169118885 0.2042170048835372 0  0.3745983974151399 0.2025509086947486 0  0.3498262549237185 0.2035190840858177 0  0.3843241042583146 0.2030947916533806 0  0.2647565694748168 0.1960901665694755 0  0.5938205014658156 0.2060094840092461 0  0.5318396682166343 0.1952249609913581 0  0.5170634631710652 0.194888820853412 0  0.3069802398008014 0.2034658113002142 0  0.5022633940832835 0.1945832462574085 0  0.5710537459521436 0.20525869821528 0  0.4874292390085008 0.1942965999225428 0  0.4726222579514864 0.1940328816675376 0  0.3661826009739817 0.20248183
[...]
<PointData  Vectors="d"> 
<DataArray  type="Float64"  Name="d"  NumberOfComponents="3" format="ascii">1.4588022620160652e-04 2.1689351245323986e-03 0.0000000000000000e+00  -7.4855343269876625e-04 2.2542598652763564e-03 0.0000000000000000e+00  0.0000000000000000e+00 0.0000000000000000e+00 0.0000000000000000e+00  0.0000000000000000e+00 0.0000000000000000e+00 0.0000000000000000e+00  -3.0081556328720633e-04 2.2107187070942958e-03 0.0000000000000000e+00  0.0000000000000000e+00 0.0000000000000000e+00 0.0000000000000000e+00  0.0000000000000000e+00 0.0000000000000000e+00 0.0000000000000000e+00  0.0000000000000000e+00 0.0000000000000000e+00 0.0000000000000000e+00  0.0000000000000000e+00 0.0000000000000000e+00 0.0000000000000000e+00  2.7697801282423597e-05 -2.6415404677704307e-05 0.0000000000000000e+00  5.3753626484241530e-05 -6.1168383033380547e-05 0.0000000000000000e+00  7.6788724028287923e-05 -1.0522179814705855e-04 0.0000000000000000e+00  9.4156018514489297e-05 -1.6968325512008205e-04 0.0000000000000000e+00  1.0623092162045993e-04 -2.4219763413909685e-04 0.0000000000000000e+00  1.1576332589976217e-04 -3.2645128646376190e-04 0.0000000000000000e+00  1.2072985578353188e-04 -4.1380626129004837e-04 0.0000000000000000e+00  1.2143597554772869e-04 -5.0776677980568237e-04 0.0000000000000000e+00  1.1940858283022286e-04 -6.0508311121507498e-04 0.0000000000000000e+00  1.1452791981036124e-04 -7.0430198624646953e-04 0.0000000000000000e+00  1.0762165229278495e-04 -8.0439489225860299e-04 0.0000000000000000e+00  9.9000671704516167e-05 -9.0364949217853834e-04 0.0000000000000000e+00  8.8383467419161872e-05 -1.0019719908970644e-03 0.0000000000000000e+00  7.5456192172007532e-05 -1.0978090462068215e-03 0.0000000000000000e+00  6.2256836982845629e-05 -1.1917693632828490e-03 0.0000000000000000e+00  4.7514564928834574e-05 -1.2820213504310086e-03 0.0000000000000000e+00  3.2317485580032295e-05 -1.3702349735695454e-03 0.0000000000000000e+00  1.6736996896071149e-05 -1.4547814863496800e-03 0.0000000000000000e+00  1.0185065906420849e-06 -1.5368527708498592e-03 0.0000000000000000e+00  -1.4839007111190437e-05 -1.6147949570477450e-03 0.0000000000000000e+00  -3.0707550702294289e-05 -1.6895133066741174e-03 0.0000000000000000e+00  -4.6698387351548154e-05 -1.7605909498711752e-03 0.0000000000000000e+00  -6.5514336926243575e-05 -1.8245543200841265e-03 0.0000000000000000e+00  -8.5466780084163523e-05 -1.8881394241297299e-03 0.0000000000000000e+00  -1.0690046214429989e-04 -1.9462315322858771e-03 0.0000000000000000e+00  -1.2897797166216583e-04 -2.0009994578324302e-03 0.0000000000000000e+00  -1.5322238631872013e-04 -2.0505084765732925e-03 0.0000000000000000e+00  -1.7798094796776342e-04 -2.0954988598469075e-03 0.0000000000000000e+00  -2.0243522026183286e-04 -2.1343508167688137e-03 0.0000000000000000e+00  -2.2713337312376818e-04 -2.1615423548125498e-03 0.0000000000000000e+00  -2.5341555595492148e-04 -2.1866354593626813e-03 0.0000000000000000e+00  -2.7425853012036182e-04 -2.1989387570206737e-03 0.0000000000000000e+00  -2.9515974721202069e-04 -2.1982298102973591e-03 0.0000000000000000e+00  -3.1645273709066118e-04 -2.1948617976364905e-03 0.0000000000000000e+00  -3.3275485098790622e-04 -2.1765696596636091e-03 0.0000000000000000e+00  -3.5207015691231052e-04 -2.1526692166016054e-03 0.0000000000000000e+00  -3.6675697411448475e-04 -2.1190515958956027e-03 0.0000000000000000e+00  -3.8349954698039613e-04 -2.0784455881758673e-03 0.0000000000000000e+00  -3.9691485046714783e-04 -2.0313484113935829e-03 0.0000000000000000e+00  -4.0873427786836905e-04 -1.9776990220746840e-03 0.0000000000000000e+00  -4.1999506071007802e-04 -1.9193990013884517e-03 0.0000000000000000e+00  -4.2984563278633656e-04 -1.8563325673359127e-03 0.0000000000000000e+00  -4.3753386503448912e-04 -1.7868909368234660e-03 0.0000000000000000e+00  -4.4424470977793418e-04 -1.7134256841866127e-03 0.0000000000000000e+00  -4.4898240001131401e-04 -1.6355738092347369e-03 0.0000000000000000e+00  -4.5329942707558751e-04 -1.5520611729760772e-03 0.0000000000000000e+00  -4.5628082549734397e-04 -1.4653034825244063e-03 0.0000000000000000e+00  -4.5810167759828524e-04 -1.3754583619845458e-03 0.0000000000000000e+00  -4.6244055997189806e-04 -1.2834062216363410e-03 0.0000000000000000e+00  -4.6774638228967431e-04 -1.1893110311784910e-03 0.0000000000000000e+00  -4.7506499059068904e-04 -1.0938813005363917e-03 0.0000000000000000e+00  -4.8730011339527172e-04 -9.9884378854557228e-04 0.0000000000000000e+00  -5.0421618980346411e-04 -9.0179354603307316e-04 0.0000000000000000e+00  -5.2705698459019922e-04 -8.0225998716383791e-04 0.0000000000000000e+00  -5.5411222225245141e-04 -7.0059733732982766e-04 0.0000000000000000e+00  -5.8739326474495140e-04 -5.9299903758937788e-04 0.0000000000000000e+00  -6.2596323928405177e-04 -4.7781646246568477e-04 0.0000000000000000e+00  -6.6690766663671588e-04 -3.5258715540040480e-04 0.0000000000000000e+00  -7.0506753024661070e-04 -2.1904305751845838e-04 0.0000000000000000e+00  -7.3967040355323824e-04 -6.7852458947510868e-05 0.0000000000000000e+00  -7.7400584739547803e-04 1.0188613376326452e-04 0.0000000000000000e+00  -8.0488570114183196e-04 2.7254657606199089e-04 0.0000000000000000e+00  -8.2217809190805301e-04 4.6768748928500075e-04 0.0000000000000000e+00  -8.3774653676078393e-04 6.7112777734754429e-04 0.0000000000000000e+00  -8.3997836248134010e-04 8.8331264680598348e-04 0.0000000000000000e+00  -8.3507813575784101e-04 1.1094734223736245e-03 0.0000000000000000e+00  -8.2492245248162147e-04 1.3340516867514716e-03 0.0000000000000000e+00  -8.0774329474233176e-04 1.5657702233397883e-03 0.0000000000000000e+00  -7.8843649202135898e-04 1.7982972796607962e-03 0.0000000000000000e+00  -7.6867050147957190e-04 2.0271914153435744e-03 0.0000000000000000e+00  1.2130302838530093e-04 1.9480216050988377e-03 0.0000000000000000e+00  9.0977696172538067e-05 1.7259178072902190e-03 0.0000000000000000e+00  5.7241270691936954e-05 1.5013033309161621e-03 0.0000000000000000e+00  2.1300783851995582e-05 1.2830773105377464e-03 0.0000000000000000e+00  -1.5877706446661407e-05 1.0724498324407377e-03 0.0000000000000000e+00  -4.9348409930037773e-05 8.6611768446326939e-04 0.0000000000000000e+00  -7.8680539202893054e-05 6.7359393989556416e-04 0.0000000000000000e+00  -1.0846845791311359e-04 4.9282612771819087e-04 0.0000000000000000e+00  -1.2493422485068692e-04 3.1801375294360158e-04 0.0000000000000000e+00  -1.3762656470998547e-04 1.5888239020276759e-04 0.0000000000000000e+00  -1.4193510477356782e-04 2.7527720034011191e-06 0.0000000000000000e+00  -1.3667089038456209e-04 -1.3748722905150332e-04 0.0000000000000000e+00  -1.3179222296271409e-04 -2.6763570090731386e-04 0.0000000000000000e+00  -1.2248976280726393e-04 -4.0312519660393452e-04 0.0000000000000000e+00  -1.0693845659798281e-04 -5.2306108154909258e-04 0.0000000000000000e+00  -9.5072080303359435e-05 -6.3871844822830390e-04 0.0000000000000000e+00  -8.1951514011900957e-05 -7.5814932374326208e-04 0.0000000000000000e+00  -7.0502499341864105e-05 -8.6720252581900072e-04 0.0000000000000000e+00  -6.3976548024330857e-05 -9.7530316467880516e-04 0.0000000000000000e+00  -5.8835204410190192e-05 -1.0835795748251821e-03 0.0000000000000000e+00  -5.9705255145963302e-05 -1.1845775823243474e-03 0.0000000000000000e+00  -6.3377613813596779e-05 -1.2838872554758137e-03 0.0000000000000000e+00  -6.8414505544022591e-05 -1.3793155261354860e-03 0.0000000000000000e+00  -7.7953520423676122e-05 -1.4692742738455628e-03 0.0000000000000000e+00  -8.7120718887012221e-05 -1.5565051048236898e-03 0.0000000000000000e+00  -9.5710459855669132e-05 -1.6382292160059895e-03 0.0000000000000000e+00  -1.0664863120431465e-04 -1.7164559892643946e-03 0.0000000000000000e+00  -1.1599892159430198e-04 -1.7906205765640807e-03 0.0000000000000000e+00  -1.2486768488129566e-04 -1.8617031992781913e-03 0.0000000000000000e+00  -1.3398104034574715e-04 -1.9289729939502285e-03 0.0000000000000000e+00  -1.4631967214844428e-04 -1.9912407605960961e-03 0.0000000000000000e+00  -1.5837802194633855e-04 -2.0508674876070611e-03 0.0000000000000000e+00  -1.7326638929598376e-04 -2.1031085469481472e-03 0.0000000000000000e+00  -1.8859870392125904e-04 -2.1500141314777805e-03 0.0000000000000000e+00  -2.0710786027523779e-04 -2.1882380745043353e-03 0.0000000000000000e+00  -2.2596960272885350e-04 -2.2139308745542235e-03 0.0000000000000000e+00  -2.4773609367518065e-04 -2.2323743241989312e-03 0.0000000000000000e+00  -2.6662537046442562e-04 -2.2375335398775922e-03 0.0000000000000000e+00  -2.8482956090477343e-04 -2.2322685066205397e-03 0.0000000000000000e+00  -3.0056849419917174e-04 -2.2158375324513075e-03 0.0000000000000000e+00  -3.1135805532094213e-04 -2.1898591899259224e-03 0.0000000000000000e+00  -3.1649940618542089e-04 -2.1576638613238779e-03 0.0000000000000000e+00  -3.1801508513406413e-04 -2.1187301746902107e-03 0.0000000000000000e+00  -3.2115727516015576e-04 -2.0754020315998539e-03 0.0000000000000000e+00  -3.1996409099988769e-04 -2.0280290440610844e-03 0.0000000000000000e+00  -3.2134256050607326e-04 -1.9746756499105637e-03 0.0000000000000000e+00  -3.2169397802276457e-04 -1.9184157010017642e-03 0.0000000000000000e+00  -3.2395950451911645e-04 -1.8559204107008527e-03 0.0000000000000000e+00  -3.2543966416338793e-04 -1.7891878324174713e-03 0.0000000000000000e+00  -3.2637857537105879e-04 -1.7164903832663399e-03 0.0000000000000000e+00  -3.2824999009694472e-04 -1.6399265396591885e-03 0.0000000000000000e+00  -3.2672036711856142e-04 -1.5590862081922381e-03 0.0000000000000000e+00  -3.2543294088270298e-04 -1.4744534440858596e-03 0.0000000000000000e+00  -3.2152143048419800e-04 -1.3883687256414754e-03 0.0000000000000000e+00  -3.1797922554316756e-04 -1.2986723019587745e-03 0.0000000000000000e+00  -3.1441310756784904e-04 -1.2084862088510731e-03 0.0000000000000000e+00  -3.1011549267308464e-04 -1.1139674016696201e-03 0.0000000000000000e+00  -3.0535464748161176e-04 -1.0170207800157406e-03 0.0000000000000000e+00  -2.9837192344421153e-04 -9.1802177603511820e-04 0.0000000000000000e+00  -2.8936040396100799e-04 -8.1818363615907843e-04 0.0000000000000000e+00  -2.7794093440421737e-04 -7.1819571100716127e-04 0.0000000000000000e+00  -2.6445871943332484e-04 -6.1962127949239526e-04 0.0000000000000000e+00  -2.4788133275751152e-04 -5.2207356675037174e-04 0.0000000000000000e+00  -2.3016309012662345e-04 -4.2936763079036888e-04 0.0000000000000000e+00  -2.0668497125283294e-04 -3.3981852408538363e-04 0.0000000000000000e+00  -1.8142817167279956e-04 -2.6040231548420817e-04 0.0000000000000000e+00  -1.4915871064944021e-04 -1.8906588196324848e-04 0.0000000000000000e+00  -1.1639915299110533e-04 -1.2613813471586271e-04 0.0000000000000000e+00  -8.0956859865078258e-05 -7.7449494886091820e-05 0.0000000000000000e+00  -4.1926827805475851e-05 -4.3792294443462501e-05 0.0000000000000000e+00  -7.7499309104761899e-05 2.1902333093492031e-03 0.0000000000000000e+00  -5.2325183691737055e-04 2.2325069529786513e-03 0.0000000000000000e+00  -7.7629406547638299e-06 -4.5087331772995487e-05 0.0000000000000000e+00  -4.2127008413622567e-04 -1.5090388596744234e-04 0.0000000000000000e+00  -4.4269815355117898e-04 7.5118043569095928e-04 0.0000000000000000e+00  -3.2000909713415158e-05 -2.9983074830782446e-04 0.0000000000000000e+00  -2.8596750914355992e-04 -8.4073417342845074e-04 0.0000000000000000e+00  -3.5165575768978459e-04 -5.2453410141453790e-04 0.0000000000000000e+00  -8.6461696464329281e-05 -6.2882142288925855e-04 0.0000000000000000e+00  -3.6531327960378834e-04 1.4089840397000495e-03 0.0000000000000000e+00  -1.0406087699542249e-04 -9.5374389107432084e-04 0.0000000000000000e+00  -1.3703890846747093e-04 -1.4514374606133505e-03 0.0000000000000000e+00  -2.5518993538296088e-04 -1.1329883610898617e-03 0.0000000000000000e+00  -1.8297830306466940e-04 -1.7449492163947335e-03 0.0000000000000000e+00  -2.5749513150710214e-04 -1.4107170998916437e-03 0.0000000000000000e+00  -2.0857092969434689e-04 -1.9473975680601623e-03 0.0000000000000000e+00  -2.5868181397459093e-04 -2.1346161743069940e-03 0.0000000000000000e+00  -2.6437113413436931e-04 -1.6690613163929178e-03 0.0000000000000000e+00  -2.7760093894517619e-04 -1.8885028058280527e-03 0.0000000000000000e+00  -2.8440983589678902e-04 -2.2190635859644773e-03 0.0000000000000000e+00  -2.8572345638582913e-04 -2.2166400855760100e-03 0.0000000000000000e+00  -2.7770366941640780e-04 -2.0766636285737866e-03 0.0000000000000000e+00  -1.2015195225891519e-04 -1.1484173889037637e-03 0.0000000000000000e+00  -4.5636334554811366e-04 3.5227811583444591e-04 0.0000000000000000e+00  -2.8100620215753321e-04 -2.1705648464333447e-03 0.0000000000000000e+00  -1.6692110954726367e-04 -1.6148667538774548e-03 0.0000000000000000e+00  -2.3421001225710730e-04 -2.0595887537414735e-03 0.0000000000000000e+00  -5.8013366321140842e-05 -4.6214630947734650e-04 0.0000000000000000e+00  -2.6407636327363629e-04 1.7959161830920891e-03 0.0000000000000000e+00  -9.1598609788823947e-06 -1.5011064292737563e-04 0.0000000000000000e+00  -3.1179267417163358e-04 -1.7841215418857729e-03 0.0000000000000000e+00  -3.0110766445003785e-04 -1.2818087298924600e-03 0.0000000000000000e+00  -3.1661687470505907e-04 -9.9719358702841064e-04 0.0000000000000000e+00  -2.8344362264251917e-04 -2.1886016497815589e-03 0.0000000000000000e+00  -3.0734394414317338e-04 -1.5484004831419003e-03 0.0000000000000000e+00  -3.7087525727012643e-04 -6.9902533348072766e-04 0.0000000000000000e+00  -3.0706589633711480e-04 -1.9831601823974217e-03 0.0000000000000000e+00  -4.5112016037654186e-04 -3.5888991946908809e-04 0.0000000000000000e+00  -2.8438880580802561e-04 -2.2329055097216164e-03 0.0000000000000000e+00  -2.2289943947287246e-04 -1.8509740983040329e-03 0.0000000000000000e+00  -1.3371815461324374e-04 -8.1158900236382142e-04 0.0000000000000000e+00  -3.2956170909459307e-04 1.0598522279373498e-03 0.0000000000000000e+00  -3.5326543627409325e-04 8.7072989530048269e-05 0.0000000000000000e+00  -8.2323775484925086e-05 -1.2934339237943970e-03 0.0000000000000000e+00  -5.6380956997642442e-04 5.4449380422988272e-06 0.0000000000000000e+00  -2.0680528307986555e-04 -1.3355086071046365e-03 0.0000000000000000e+00  -2.9204819550299627e-04 -2.7458818331531175e-04 0.0000000000000000e+00  -2.3500304997797753e-04 -6.3291166636001686e-04 0.0000000000000000e+00  -1.8945915579005518e-04 -9.4545102218817267e-04 0.0000000000000000e+00  -5.6914331754350617e-04 1.1740672178692244e-03 0.0000000000000000e+00  -1.0653476848891276e-05 -7.6262294598512196e-04 0.0000000000000000e+00  -1.9399435814775349e-04 -1.5097454275808484e-03 0.0000000000000000e+00  -1.7892581173872788e-04 -1.2386237369670238e-03 0.0000000000000000e+00  -2.5250085935047263e-04 -2.1669031730705800e-03 0.0000000000000000e+00  -1.3993193206429875e-04 -1.8114777213731901e-03 0.0000000000000000e+00  -2.1566646706202785e-04 -1.8152548776609607e-03 0.0000000000000000e+00  -2.2580746983349707e-04 -1.9594356218787167e-03 0.0000000000000000e+00  -2.8957090123515796e-04 -2.2212440988545424e-03 0.0000000000000000e+00  -2.1121920120280816e-05 -2.6351049898308517e-05 0.0000000000000000e+00  4.9148622797797356e-06 -1.6551502949961987e-05 0.0000000000000000e+00  -3.1481770250773547e-04 -2.1090763185164837e-03 0.0000000000000000e+00  -2.5530359708044847e-04 -1.9953092158877484e-03 0.0000000000000000e+00  -2.2394933924570226e-04 -1.5172390978713739e-03 0.0000000000000000e+00  -1.1509935388752625e-04 -3.7494013099328283e-04 0.0000000000000000e+00  -1.3934107132555448e-04 -5.6675801193739400e-04 0.0000000000000000e+00  -3.0667605603974416e-04 -2.1823794059701077e-03 0.0000000000000000e+00  -2.3575674526954811e-04 -1.6729155346321299e-03 0.0000000000000000e+00  -2.7499168269340797e-04 -2.0955616914818676e-03 0.0000000000000000e+00  -1.8835617590043138e-04 -1.0807204325124435e-03 0.0000000000000000e+00  -5.9559864384116953e-04 5.0347420606901500e-04 0.0000000000000000e+00  -3.1156774143464069e-04 5.2077641764903778e-04 0.0000000000000000e+00  -3.8949286525034367e-05 -1.0670560538435952e-03 0.0000000000000000e+00  -8.5705641015395258e-05 -2.0376534191983192e-04 0.0000000000000000e+00  -5.6526635884591330e-04 1.6415487989723772e-03 0.0000000000000000e+00  -2.3409772410518633e-04 -2.1212413479619690e-03 0.0000000000000000e+00  -2.5788290196491614e-04 -2.2004965508580516e-03 0.0000000000000000e+00  -7.7828782427659502e-05 -1.5019208608830249e-03 0.0000000000000000e+00  2.8560703249941432e-05 -3.6080760019578206e-04 0.0000000000000000e+00  2.1013598016262768e-05 -5.6394682355827047e-04 0.0000000000000000e+00  -1.7299519535339194e-04 -1.9839453501067513e-03 0.0000000000000000e+00  -9.5393966168108937e-05 -1.6562572328128141e-03 0.0000000000000000e+00  -2.0418457091509612e-04 -2.0805496652553943e-03 0.0000000000000000e+00  -5.7917070688670671e-05 -1.1880772916191611e-04 0.0000000000000000e+00  -5.0426290047369561e-04 1.9679416503279421e-03 0.0000000000000000e+00  -2.5759282898006071e-04 -4.1954891372905032e-04 0.0000000000000000e+00  -2.0238075770739864e-04 -7.5568905167342935e-04 0.0000000000000000e+00  -1.2085759464325747e-05 -8.8099208704093515e-04 0.0000000000000000e+00  -1.7103272864299213e-04 -1.0612636476778781e-03 0.0000000000000000e+00  -6.0655762129124141e-04 9.1189482800385852e-04 0.0000000000000000e+00  -1.7377068657336195e-04 -1.3479099825403509e-03 0.0000000000000000e+00  -1.9293957813984602e-04 -1.6073652234518245e-03 0.0000000000000000e+00  -1.4757667877208938e-04 -1.8856235750184208e-03 0.0000000000000000e+00  -2.0262284971227749e-04 -1.7297553631742070e-03 0.0000000000000000e+00  -2.6628464521092157e-04 -2.1975067930620176e-03 0.0000000000000000e+00  -2.2365797923931839e-04 -2.0308534491548153e-03 0.0000000000000000e+00  -2.9791583568636857e-04 -2.2155104591355481e-03 0.0000000000000000e+00  -1.7976868814296347e-04 1.5738396661657010e-03 0.0000000000000000e+00  -6.0382477161466679e-04 1.9972425687700461e-04 0.0000000000000000e+00  -2.0979893544823450e-04 -1.2315396042790871e-03 0.0000000000000000e+00  3.1183646098688828e-05 -2.0887075733717745e-04 0.0000000000000000e+00  1.7415800620590063e-05 -9.0379111115178375e-05 0.0000000000000000e+00  -3.4785208182161985e-04 -1.8529170971300875e-03 0.0000000000000000e+00  -2.7205410504127752e-04 -2.2298945492088499e-03 0.0000000000000000e+00  -3.5196255848719913e-04 -1.6295699928334246e-03 0.0000000000000000e+00  -4.0197431416810498e-04 -8.0111225609498613e-04 0.0000000000000000e+00  -3.4672546547516165e-04 -1.3713998243803410e-03 0.0000000000000000e+00  -3.5618756752339525e-04 -1.0914867179627555e-03 0.0000000000000000e+00  -2.9021259592780285e-04 -2.2156520820690194e-03 0.0000000000000000e+00  -3.3127341679524386e-04 -2.0349946626301153e-03 0.0000000000000000e+00  -2.5429601013508103e-04 -1.9126063281603659e-03 0.0000000000000000e+00  -2.9009391878096147e-04 -2.1582965586747732e-03 0.0000000000000000e+00  -5.4613081011988429e-04 -2.3341368592330949e-04 0.0000000000000000e+00  -2.5154596816472731e-04 -1.7882788920801963e-03 0.0000000000000000e+00  -4.6517155892754813e-04 -4.8494615023229816e-04 0.0000000000000000e+00  -1.8594625382158765e-04 -9.0751678983591101e-04 0.0000000000000000e+00  -1.7075247131834130e-04 -7.1549033825277404e-04 0.0000000000000000e+00  -2.1469470611235384e-04 1.2577555689437358e-03 0.0000000000000000e+00  -2.5623944582875316e-04 8.5301829807813594e-04 0.0000000000000000e+00  -3.5991243440701784e-04 -8.9732502925735623e-04 0.0000000000000000e+00  -3.2984585746096047e-04 -1.1842565936044608e-03 0.0000000000000000e+00  -3.3817453837983811e-04 -1.7092183420302034e-03 0.0000000000000000e+00  -4.3485567663548841e-04 -5.9493762418708312e-04 0.0000000000000000e+00  -3.2927830366168034e-04 -1.4584504335751229e-03 0.0000000000000000e+00  -3.3351585808745531e-04 -1.9204740796174827e-03 0.0000000000000000e+00  -2.8814193374831441e-04 -2.2310392916223497e-03 0.0000000000000000e+00  -3.8352845747214403e-05 -1.2046741258744372e-03 0.0000000000000000e+00  -2.9672171134237417e-04 2.5647800632592116e-04 0.0000000000000000e+00  -2.9384074259190124e-04 -4.8014697623681870e-05 0.0000000000000000e+00  -6.2510931657012804e-05 -1.376235223554