<?xml version="1.0"?>
<VTKFile type="UnstructuredGrid"  version="0.1"  >
<UnstructuredGrid>
<Piece  NumberOfPoints="439" NumberOfCells="725">
<Points>
<DataArray  type="Float64"  NumberOfComponents="3"  format="ascii">0.562096246715063 0.05011301084350256 0  0.5742640123229917 0.06681138155802356 0  0.2489897949 0.21 0  0.2489897949 0.19 0  0.5681319465892833 0.05845292097197312 0  0.2496355385699469 0.2060260530378829 0  0.249959460510575 0.2020130349814059 0  0.2499594605105767 0.1979869650186357 0  0.24963553856995 0.1939739469621422 0  0.2540924068218547 0.2098705445822413 0  0.2592150941483731 0.2097282216092834 0  0.2643406514551059 0.2095503945188294 0  0.2694642517156112 0.2092352582045781 0  0.2745842917956425 0.20884352527641 0  0.2797191596681583 0.2083443940511776 0  0.2848387249181444 0.2077853485374695 0  0.289947238176028 0.2071205423048024 0  0.2950597438759417 0.206371467671321 0  0.3001599885217713 0.2055353038562257 0  0.3052602072170878 0.2045829784802618 0  0.3103570238735802 0.2036024717852205 0  0.3154084204603537 0.2024918805472715 0  0.3204606273745438 0.2012907450698994 0  0.3254568184262872 0.2000185934268432 0  0.3304134778027661 0.1986326853074007 0  0.3353339488771436 0.197174741454345 0  0.3401931099876867 0.1956010050439928 0  0.3450168389256633 0.1939647140224627 0  0.3497893519352749 0.1922134982937823 0  0.3545174803559217 0.1903782072470521 0  0.3592040701141941 0.1884545433002146 0  0.3638844870497894 0.1863507300325826 0  0.3685677525675372 0.1842362501279519 0  0.3731983755088294 0.1820088393297931 0  0.3778026890815304 0.1797649897937196 0  0.3823785538903645 0.1774778021114702 0  0.386927878024861 0.1751787885693499 0  0.3914498804589436 0.1728792922980261 0  0.3959485476005983 0.1705714041488892 0  0.4004323707690683 0.1682685004959782 0  0.4048845556687065 0.1659686061892449 0  0.4093189652939238 0.1637011476213316 0  0.4137385057478962 0.1614393921116238 0  0.4181485360895483 0.1592262603472605 0  0.4225333922016257 0.1570464288812798 0  0.4269211197218463 0.154910573968421 0  0.4312843757911613 0.1528119019455215 0  0.4356530569977536 0.1507315052406986 0  0.4400026360599277 0.1486556459036962 0  0.4443496300280791 0.1465641114606244 0  0.4486880508033492 0.1444512657513039 0  0.4530299229385236 0.1422838870036517 0  0.4573791818582896 0.1400966381980783 0  0.4617324544366729 0.1378724877009795 0  0.466127064265609 0.1356217983686926 0  0.4705254958515362 0.1333652976291704 0  0.4749496177579536 0.1310802418644538 0  0.4794030990656108 0.12879370531291 0  0.4838323682173994 0.1264870713228863 0  0.4882556242284438 0.1241429441276963 0  0.4926359356302815 0.1217924816013534 0  0.4969571338922999 0.1194259964876699 0  0.5012433737751618 0.1170330507257719 0  0.5054701156297957 0.1146132907167492 0  0.5096794496746186 0.1121688832770529 0  0.5138900462596374 0.1096634729054957 0  0.5181086972966634 0.1070940442812465 0  0.5223387257160524 0.1044067895613535 0  0.5266339583450741 0.1015881443385781 0  0.5310014352077671 0.09865743568980954 0  0.5353594754811081 0.09565527178496357 0  0.539770068270259 0.09245224486513481 0  0.5441649972135629 0.08919520067131115 0  0.5485425796085237 0.08586209558829405 0  0.5528930102122254 0.08254957577261 0  0.5572043594327688 0.07922996751356683 0  0.5615239115124643 0.07600675677632536 0  0.5657772348561635 0.07289092333475602 0  0.570030947594619 0.06981396350041477 0  0.557947083763576 0.0531997540232782 0  0.553789519996096 0.05636853671454239 0  0.5496015949183871 0.05961458547614465 0  0.5454699168114053 0.06283676680084453 0  0.541465064350649 0.06618428565746719 0  0.5373877729795985 0.06942427595332436 0  0.533371994107446 0.07262734241495158 0  0.5295420341780059 0.07579374980552407 0  0.5255391905704306 0.07877052163952342 0  0.5215006832557861 0.08167576374029356 0  0.5174279139904342 0.08444825350178962 0  0.5134595991001983 0.08712624142378667 0  0.5093622718287364 0.08976241056777767 0  0.5051909532437246 0.09230577504897017 0  0.5010538917595284 0.09476708240087987 0  0.4968010599814588 0.09719873259412971 0  0.4925077471690464 0.09959142822125909 0  0.4882043805565143 0.1019436225871695 0  0.4838115266423452 0.1042650486332406 0  0.4794032066317405 0.1065661148056997 0  0.4749808220521209 0.1088715089972513 0  0.4705047014897661 0.1111670704502283 0  0.4660466796687091 0.1134564671556948 0  0.461598130490003 0.1157864442228299 0  0.4571471388585176 0.1181167207062872 0  0.4527334020952114 0.1204340598934357 0  0.4483566634602911 0.1227763054513448 0  0.443993281475661 0.1250815415173492 0  0.4396542928026566 0.127371131437791 0  0.4353202441409644 0.1296150681547875 0  0.4309726791056008 0.1318321909324552 0  0.4266222287005639 0.134020928831365 0  0.4222413894147479 0.1361818556876407 0  0.4178340991145798 0.1383262442907569 0  0.4134119826319186 0.1404732414098198 0  0.4089680051207361 0.1426281759794942 0  0.4045258221877783 0.1447976608241746 0  0.4000695079596537 0.1469916038694022 0  0.3956150791283652 0.1491827834570907 0  0.3911686411564749 0.1513864954434601 0  0.3867365783495512 0.1535965818834993 0  0.382310601925657 0.1558146099776867 0  0.3778973996768933 0.1580243193198164 0  0.3735145808158832 0.1602105529158236 0  0.3691426781362832 0.1623677413401937 0  0.3648089511943117 0.1644599270132643 0  0.3604774095284179 0.1665022196970068 0  0.3561595056014644 0.1684278340009179 0  0.3518307615631064 0.1702943285189431 0  0.3474654505494124 0.1720385539806732 0  0.3431242580595449 0.173684578652514 0  0.3386802007910462 0.1752332757397486 0  0.3342206810047968 0.1766605155483245 0  0.3296612949446147 0.1780363435766408 0  0.3250462681404429 0.1792927874157208 0  0.3204211017986497 0.1805317198583751 0  0.3157192460131678 0.1816711303905419 0  0.3110246535329808 0.1827416257277186 0  0.3062702310224341 0.1837665427682192 0  0.3015063889808572 0.1846993107860549 0  0.2967245607575485 0.1855870460359037 0  0.2919341911780325 0.1863860345979193 0  0.28717080605228 0.1871250866839259 0  0.2823758549198047 0.1877813414591441 0  0.2776140634346907 0.188354443543412 0  0.2728332630265736 0.1888268379348371 0  0.268078921865727 0.1892147462167581 0  0.2633076109973826 0.1895340620490081 0  0.2585367276922019 0.1897553372914791 0  0.2537677865645816 0.1898599951521971 0  0.5650924105585821 0.05428262260946706 0  0.5712152524825407 0.06262749581116049 0  0.258989507622405 0.2004305876280281 0  0.51938489790363 0.09418156536056543 0  0.5405293272885111 0.07866009371447469 0  0.2775257504772191 0.1993987996966066 0  0.4949033148095207 0.1091247632981674 0  0.5074247363384503 0.1018205418629525 0  0.2944275628770656 0.1956274445164496 0  0.5529649099378705 0.06883285046223382 0  0.3104184299807379 0.1933143147456609 0  0.3365967013311355 0.1873372799886912 0  0.4818919832898634 0.1161552062445018 0  0.3533714189232374 0.1804067373667963 0  0.4685907743182494 0.1231077561496067 0  0.3673464871333736 0.1741807409897727 0  0.3846407730788513 0.1654848591428143 0  0.4548991035924072 0.1299009193885677 0  0.4420916092295852 0.137003585108482 0  0.397730074956101 0.1588998735722395 0  0.411366303174566 0.1519123546219129 0  0.4284872068261421 0.1436090517164421 0  0.3201551338242674 0.1911087507784853 0  0.5320720621592588 0.08504192638329448 0  0.4189386257700755 0.1480409696444621 0  0.3455779474335231 0.1835812329343522 0  0.3770067571899484 0.1695231713231466 0  0.286080844260057 0.1975944142450838 0  0.5594520038145662 0.06246574619016303 0  0.2680905406900514 0.2010804209780081 0  0.4495851959575951 0.135636646198266 0  0.4759528975749989 0.1218710799605678 0  0.4891709655603214 0.114895820439604 0  0.3903016547895236 0.1601559594727316 0  0.4626661118400566 0.1288115786082168 0  0.5019501246593353 0.1077666713452977 0  0.4366006843832638 0.1421108010018164 0  0.5143140148308643 0.1002215360074546 0  0.4036620357244381 0.1533813306834667 0  0.3592281533105673 0.1755055301697354 0  0.3029797213582197 0.1925155716409314 0  0.5453479397396198 0.07220649450949958 0  0.5240401184806829 0.08743889063202928 0  0.3286614968674239 0.1918176168426744 0  0.5257088386525728 0.09453293245462054 0  0.328807865254285 0.1847768898476327 0  0.5133739864802106 0.09367142503653353 0  0.5011235057432446 0.1013293807218796 0  0.4883990999834194 0.1085031466102048 0  0.5509662345162848 0.07586633610130498 0  0.3019256155172104 0.1990114182288098 0  0.4619110428559579 0.1224284446286689 0  0.4752271792545048 0.11546992924189 0  0.3911267246924461 0.1663765014823713 0  0.359573147144689 0.1818819457731228 0  0.4449212066779033 0.1313463700169436 0  0.4357684776553432 0.1360038935497798 0  0.4044941668109994 0.1595048857122804 0  0.2557085938871991 0.1960353087267249 0  0.2550687886236267 0.2034088440030188 0  0.4267175904388928 0.1484228467241794 0  0.3692436849702487 0.1691301434681482 0  0.3385522711959276 0.1816961700435827 0  0.2808528111261983 0.1942001825956506 0  0.2907209797942157 0.1929028878409684 0  0.4177505294983639 0.1529488797857689 0  0.3473303127794006 0.1786056453919057 0  0.3782456850822967 0.1644315589699233 0  0.3156982763510828 0.1881653529792211 0  0.5374933393354246 0.0859192067852709 0  0.533451545166025 0.0791768689416424 0  0.3170772748068426 0.1958356665661356 0  0.2707565229269167 0.195113428270032 0  0.5600787106813487 0.07022570293290389 0  0.4228411041530188 0.1415908025303943 0  0.4137752232346003 0.1463923610098163 0  0.3408870423177763 0.1900422692924987 0  0.2814106003339092 0.2029727611185958 0  0.2921452483307121 0.2015636420092857 0  0.3729053915579275 0.1763244412207599 0  0.3501763383905265 0.1870922174067448 0  0.3821037722457304 0.1723946196467382 0  0.2646029619314704 0.1957756250709584 0  0.5657565578134736 0.06527558770523079 0  0.5084569272060034 0.09634670180668765 0  0.4960060306854824 0.1037669678296053 0  0.3078807493649336 0.1983385625812171 0  0.4830623213348487 0.1108333660822737 0  0.5461500818148363 0.08012179164410534 0  0.4697848913977942 0.1177776560824863 0  0.456544717059393 0.124714
[...]
<PointData  Vectors="d"> 
<DataArray  type="Float64"  Name="d"  NumberOfComponents="3" format="ascii">-3.7903753284936711e-02 -1.3988698915649744e-01 0.0000000000000000e+00  -2.5735987677008264e-02 -1.4318861844197642e-01 0.0000000000000000e+00  0.0000000000000000e+00 0.0000000000000000e+00 0.0000000000000000e+00  0.0000000000000000e+00 0.0000000000000000e+00 0.0000000000000000e+00  -3.1868053410716683e-02 -1.4154707902802702e-01 0.0000000000000000e+00  0.0000000000000000e+00 0.0000000000000000e+00 0.0000000000000000e+00  0.0000000000000000e+00 0.0000000000000000e+00 0.0000000000000000e+00  0.0000000000000000e+00 0.0000000000000000e+00 0.0000000000000000e+00  0.0000000000000000e+00 0.0000000000000000e+00 0.0000000000000000e+00  1.5880621622569620e-04 -1.2945541775866032e-04 0.0000000000000000e+00  3.3768783711899693e-04 -2.7177839071652708e-04 0.0000000000000000e+00  5.1943943821386917e-04 -4.4960548117047028e-04 0.0000000000000000e+00  6.9923399308118885e-04 -7.6474179542195214e-04 0.0000000000000000e+00  8.7546836748545246e-04 -1.1564747235901208e-03 0.0000000000000000e+00  1.0665305343828277e-03 -1.6556059488223472e-03 0.0000000000000000e+00  1.2422900787506506e-03 -2.2146514625303389e-03 0.0000000000000000e+00  1.4069976310114327e-03 -2.8794576951976982e-03 0.0000000000000000e+00  1.5756976252894340e-03 -3.6285323286788947e-03 0.0000000000000000e+00  1.7321365655004820e-03 -4.4646961437743594e-03 0.0000000000000000e+00  1.8885495551880793e-03 -5.4170215197382656e-03 0.0000000000000000e+00  2.0415605060621926e-03 -6.3975282147793822e-03 0.0000000000000000e+00  2.1491513872170325e-03 -7.5081194527285653e-03 0.0000000000000000e+00  2.2575525957888370e-03 -8.7092549301005934e-03 0.0000000000000000e+00  2.3099379419140136e-03 -9.9814065731566471e-03 0.0000000000000000e+00  2.3227916127745198e-03 -1.1367314692599224e-02 0.0000000000000000e+00  2.2994569815227850e-03 -1.2825258545654965e-02 0.0000000000000000e+00  2.2148123864581962e-03 -1.4398994956007206e-02 0.0000000000000000e+00  2.0947356188056121e-03 -1.6035285977537221e-02 0.0000000000000000e+00  1.9234429227990620e-03 -1.7786501706217633e-02 0.0000000000000000e+00  1.7077656378272773e-03 -1.9621792752947904e-02 0.0000000000000000e+00  1.4505496904815803e-03 -2.1545456699785401e-02 0.0000000000000000e+00  1.1871609204583962e-03 -2.3649269967417320e-02 0.0000000000000000e+00  9.2662073258756360e-04 -2.5763749872048058e-02 0.0000000000000000e+00  6.1343796825082250e-04 -2.7991160670206777e-02 0.0000000000000000e+00  2.7394583534277422e-04 -3.0235010206280423e-02 0.0000000000000000e+00  -9.3995061447572491e-05 -3.2522197888529884e-02 0.0000000000000000e+00  -4.8847663257280355e-04 -3.4821211430650034e-02 0.0000000000000000e+00  -9.1027990411953570e-04 -3.7120707701973954e-02 0.0000000000000000e+00  -1.3554184680720626e-03 -3.9428595851110804e-02 0.0000000000000000e+00  -1.8154010052300852e-03 -4.1731499504021913e-02 0.0000000000000000e+00  -2.3070218112044702e-03 -4.4031393810755118e-02 0.0000000000000000e+00  -2.8164178916072003e-03 -4.6298852378668494e-02 0.0000000000000000e+00  -3.3406831432555759e-03 -4.8560607888376274e-02 0.0000000000000000e+00  -3.8744585072151608e-03 -5.0773739652739604e-02 0.0000000000000000e+00  -4.4334081007661790e-03 -5.2953571118720108e-02 0.0000000000000000e+00  -4.9894862861786810e-03 -5.5089426031578952e-02 0.0000000000000000e+00  -5.5700359225159535e-03 -5.7188098054478539e-02 0.0000000000000000e+00  -6.1451604215792977e-03 -5.9268494759301307e-02 0.0000000000000000e+00  -6.7393870650690182e-03 -6.1344354096303573e-02 0.0000000000000000e+00  -7.3361988025654763e-03 -6.3435888539375596e-02 0.0000000000000000e+00  -7.9415837329372581e-03 -6.5548734248696228e-02 0.0000000000000000e+00  -8.5435173033924557e-03 -6.7716112996348291e-02 0.0000000000000000e+00  -9.1380640892769378e-03 -6.9903361801921748e-02 0.0000000000000000e+00  -9.7285972165269911e-03 -7.2127512299020397e-02 0.0000000000000000e+00  -1.0277793093257815e-02 -7.4378201631307386e-02 0.0000000000000000e+00  -1.0823167212977136e-02 -7.6634702370829616e-02 0.0000000000000000e+00  -1.1342851012222543e-02 -7.8919758135546220e-02 0.0000000000000000e+00  -1.1833175410195702e-02 -8.1206294687090036e-02 0.0000000000000000e+00  -1.2347711964061736e-02 -8.3512928677113699e-02 0.0000000000000000e+00  -1.2868261658645547e-02 -8.5857055872303661e-02 0.0000000000000000e+00  -1.3431755962467576e-02 -8.8207518398646531e-02 0.0000000000000000e+00  -1.4054363406087666e-02 -9.0574003512330081e-02 0.0000000000000000e+00  -1.4711929228842539e-02 -9.2966949274228147e-02 0.0000000000000000e+00  -1.5428993079845807e-02 -9.5386709283250937e-02 0.0000000000000000e+00  -1.6163464740682094e-02 -9.7831116722946920e-02 0.0000000000000000e+00  -1.6896673861302020e-02 -1.0033652709450429e-01 0.0000000000000000e+00  -1.7621828529935279e-02 -1.0290595571875359e-01 0.0000000000000000e+00  -1.8335605816184358e-02 -1.0559321043864646e-01 0.0000000000000000e+00  -1.8984178892779150e-02 -1.0841185566142181e-01 0.0000000000000000e+00  -1.9560507735723643e-02 -1.1134256431019054e-01 0.0000000000000000e+00  -2.0146273168037319e-02 -1.1434472821503631e-01 0.0000000000000000e+00  -2.0679486084529675e-02 -1.1754775513486530e-01 0.0000000000000000e+00  -2.1228362846885417e-02 -1.2080479932868884e-01 0.0000000000000000e+00  -2.1794586157587819e-02 -1.2413790441170586e-01 0.0000000000000000e+00  -2.2387961259520382e-02 -1.2745042422739009e-01 0.0000000000000000e+00  -2.3020417744614975e-02 -1.3077003248643315e-01 0.0000000000000000e+00  -2.3644671370569800e-02 -1.3399324322367467e-01 0.0000000000000000e+00  -2.4335153732517142e-02 -1.3710907666524394e-01 0.0000000000000000e+00  -2.5025246699721358e-02 -1.4018603649958528e-01 0.0000000000000000e+00  -3.7109110530807191e-02 -1.3680024597672175e-01 0.0000000000000000e+00  -3.6322868592662018e-02 -1.3363146328545758e-01 0.0000000000000000e+00  -3.5566987964732268e-02 -1.3038541452385533e-01 0.0000000000000000e+00  -3.4754860366067300e-02 -1.2716323319915540e-01 0.0000000000000000e+00  -3.3815907121202367e-02 -1.2381571434253284e-01 0.0000000000000000e+00  -3.2949392786633162e-02 -1.2057572404667570e-01 0.0000000000000000e+00  -3.2021365953172259e-02 -1.1737265758504843e-01 0.0000000000000000e+00  -3.0907520176982853e-02 -1.1420625019447592e-01 0.0000000000000000e+00  -2.9966558078927123e-02 -1.1122947836047661e-01 0.0000000000000000e+00  -2.9061259687917680e-02 -1.0832423625970646e-01 0.0000000000000000e+00  -2.8190223247670145e-02 -1.0555174649821027e-01 0.0000000000000000e+00  -2.7214732432306342e-02 -1.0287375857621339e-01 0.0000000000000000e+00  -2.6368253998159705e-02 -1.0023758943222234e-01 0.0000000000000000e+00  -2.5595766877538319e-02 -9.7694224951029765e-02 0.0000000000000000e+00  -2.4789022656134474e-02 -9.5232917599120046e-02 0.0000000000000000e+00  -2.4098048728565566e-02 -9.2801267405870205e-02 0.0000000000000000e+00  -2.3447555835375649e-02 -9.0408571778740926e-02 0.0000000000000000e+00  -2.2807116742308269e-02 -8.8056377412830400e-02 0.0000000000000000e+00  -2.2256164950872088e-02 -8.5734951366759446e-02 0.0000000000000000e+00  -2.1720679255839953e-02 -8.3433885194300200e-02 0.0000000000000000e+00  -2.1199258129851118e-02 -8.1128491002748632e-02 0.0000000000000000e+00  -2.0731572986586892e-02 -7.8832929549771724e-02 0.0000000000000000e+00  -2.0245789102025270e-02 -7.6543532844305109e-02 0.0000000000000000e+00  -1.9750532575101582e-02 -7.4213555777170148e-02 0.0000000000000000e+00  -1.9257718500979019e-02 -7.1883279293712757e-02 0.0000000000000000e+00  -1.8727649558656984e-02 -6.9565940106564361e-02 0.0000000000000000e+00  -1.8160582487964368e-02 -6.7223694548655261e-02 0.0000000000000000e+00  -1.7580158766973993e-02 -6.4918458482650626e-02 0.0000000000000000e+00  -1.6975341734353729e-02 -6.2628868562209006e-02 0.0000000000000000e+00  -1.6365584690416542e-02 -6.0384931845212479e-02 0.0000000000000000e+00  -1.5769344020170925e-02 -5.8167809067544825e-02 0.0000000000000000e+00  -1.5175988719582702e-02 -5.5979071168635104e-02 0.0000000000000000e+00  -1.4613022299781784e-02 -5.3818144312359317e-02 0.0000000000000000e+00  -1.4076506894333268e-02 -5.1673755709243124e-02 0.0000000000000000e+00  -1.3554817671367802e-02 -4.9526758590180124e-02 0.0000000000000000e+00  -1.3054989476912209e-02 -4.7371824020505764e-02 0.0000000000000000e+00  -1.2553366704227487e-02 -4.5202339175825425e-02 0.0000000000000000e+00  -1.2065875226705563e-02 -4.3008396130597933e-02 0.0000000000000000e+00  -1.1576498352334473e-02 -4.0817216542909339e-02 0.0000000000000000e+00  -1.1079130618572890e-02 -3.8613504556540036e-02 0.0000000000000000e+00  -1.0567387719838965e-02 -3.6403418116500830e-02 0.0000000000000000e+00  -1.0049558438097742e-02 -3.4185390022313196e-02 0.0000000000000000e+00  -9.5189549812149821e-03 -3.1975680680183777e-02 0.0000000000000000e+00  -8.9579681365987915e-03 -2.9789447084176430e-02 0.0000000000000000e+00  -8.3860651105427224e-03 -2.7632258659806244e-02 0.0000000000000000e+00  -7.7759863468654742e-03 -2.5540072986735676e-02 0.0000000000000000e+00  -7.1637223070904737e-03 -2.3497780302993140e-02 0.0000000000000000e+00  -6.5378205283971088e-03 -2.1572165999082099e-02 0.0000000000000000e+00  -5.9227588611044553e-03 -1.9705671481056838e-02 0.0000000000000000e+00  -5.3442641691767018e-03 -1.7961446019326911e-02 0.0000000000000000e+00  -4.7416509533861140e-03 -1.6315421347486012e-02 0.0000000000000000e+00  -4.2419025162456188e-03 -1.4766724260251411e-02 0.0000000000000000e+00  -3.7576165968567160e-03 -1.3339484451675553e-02 0.0000000000000000e+00  -3.3731969514003341e-03 -1.1963656423359051e-02 0.0000000000000000e+00  -3.0444180499317698e-03 -1.0707212584279287e-02 0.0000000000000000e+00  -2.7257786860673079e-03 -9.4682801416248515e-03 0.0000000000000000e+00  -2.4838287658912554e-03 -8.3288696094581029e-03 0.0000000000000000e+00  -2.2346155404203163e-03 -7.2583742722814601e-03 0.0000000000000000e+00  -2.0452323453240997e-03 -6.2334572317808267e-03 0.0000000000000000e+00  -1.8652686812623738e-03 -5.3006892139450968e-03 0.0000000000000000e+00  -1.7032911989327344e-03 -4.4129539640963000e-03 0.0000000000000000e+00  -1.5498550728105258e-03 -3.6139654020806368e-03 0.0000000000000000e+00  -1.3694344929074715e-03 -2.8749133160740651e-03 0.0000000000000000e+00  -1.2205799197248866e-03 -2.2186585408558502e-03 0.0000000000000000e+00  -1.0385656991808970e-03 -1.6455564565880539e-03 0.0000000000000000e+00  -8.7556040165074549e-04 -1.1731620651628312e-03 0.0000000000000000e+00  -6.8609585685909232e-04 -7.8525378324205506e-04 0.0000000000000000e+00  -5.1360101956504428e-04 -4.6593795099185100e-04 0.0000000000000000e+00  -3.4067861910732380e-04 -2.4466270852093001e-04 0.0000000000000000e+00  -1.6581404107636594e-04 -1.4000484780293021e-04 0.0000000000000000e+00  -3.4907589441417808e-02 -1.4071737739051121e-01 0.0000000000000000e+00  -2.8784747517459571e-02 -1.4237250418881234e-01 0.0000000000000000e+00  1.6081090755713434e-05 -1.2180171481229266e-04 0.0000000000000000e+00  -2.3761336481677334e-02 -1.0581843463940357e-01 0.0000000000000000e+00  -2.7710462188304908e-02 -1.2131036486642398e-01 0.0000000000000000e+00  7.4357765416696733e-05 -1.3953922455861092e-03 0.0000000000000000e+00  -1.8946268567376252e-02 -9.0777579350924509e-02 0.0000000000000000e+00  -2.1256264155287561e-02 -9.8081800786144258e-02 0.0000000000000000e+00  -8.3332328698998800e-05 -3.6637463240890645e-03 0.0000000000000000e+00  -2.9813173200622024e-02 -1.3071012963810111e-01 0.0000000000000000e+00  5.5903238123949207e-06 -6.6561438352369185e-03 0.0000000000000000e+00  -4.0347421071951364e-04 -1.3492181254705599e-02 0.0000000000000000e+00  -1.7126182970182594e-02 -8.3747136404588446e-02 0.0000000000000000e+00  -1.9101986476670943e-03 -1.9593262633264628e-02 0.0000000000000000e+00  -1.5595974824943298e-02 -7.6794586499478235e-02 0.0000000000000000e+00  -3.3908842571815064e-03 -2.5833496705596166e-02 0.0000000000000000e+00  -5.2474844313981890e-03 -3.4515140857268610e-02 0.0000000000000000e+00  -1.4086651456866339e-02 -6.9640753037101655e-02 0.0000000000000000e+00  -1.2066122454611198e-02 -6.2996414891427613e-02 0.0000000000000000e+00  -6.6234164457320555e-03 -4.1197783778684910e-02 0.0000000000000000e+00  -8.1847885693907274e-03 -4.8087645378192788e-02 0.0000000000000000e+00  -1.0214771038309131e-02 -5.6376710588235061e-02 0.0000000000000000e+00  -9.2141201402736134e-05 -8.9001334361545892e-03 0.0000000000000000e+00  -2.6333291948826311e-02 -1.1494918940206318e-01 0.0000000000000000e+00  -9.1280889186381199e-03 -5.1807935176362015e-02 0.0000000000000000e+00  -1.1880471930242882e-03 -1.6569862245085266e-02 0.0000000000000000e+00  -4.3658773759421687e-03 -3.0627923856305368e-02 0.0000000000000000e+00  1.2506567847361628e-05 -2.4471303255343465e-03 0.0000000000000000e+00  -3.1670377363553423e-02 -1.3577916974471138e-01 0.0000000000000000e+00  1.0122454418864276e-04 -5.9470466872095420e-04 0.0000000000000000e+00  -1.1988244285032918e-02 -6.6613717130534378e-02 0.0000000000000000e+00  -1.5283376901346346e-02 -8.0379283368241322e-02 0.0000000000000000e+00  -1.6896726032876726e-02 -8.7354542889207798e-02 0.0000000000000000e+00  -7.0023112791540911e-03 -3.7593677198464875e-02 0.0000000000000000e+00  -1.3738745519432854e-02 -7.3438784720588249e-02 0.0000000000000000e+00  -1.8948984050710382e-02 -9.4483691983520871e-02 0.0000000000000000e+00  -1.0141338742501843e-02 -6.0139562326983545e-02 0.0000000000000000e+00  -2.1416510996020363e-02 -1.0202882732136526e-01 0.0000000000000000e+00  -8.4733474610934612e-03 -4.4368305987731026e-02 0.0000000000000000e+00  -3.4691728187680806e-03 -2.2244106501456459e-02 0.0000000000000000e+00  -3.9193630367628270e-04 -5.2340650302554930e-03 0.0000000000000000e+00  -2.9933031732203016e-02 -1.2554314216165080e-01 0.0000000000000000e+00  -2.6419737438373312e-02 -1.0968958784173741e-01 0.0000000000000000e+00  4.6872365273959961e-04 -1.1053904683566238e-02 0.0000000000000000e+00  -2.2709063397173261e-02 -1.0930738911485582e-01 0.0000000000000000e+00  -1.4268618297138920e-03 -1.1382788582916357e-02 0.0000000000000000e+00  -2.4547098743600924e-02 -1.0245375662787751e-01 0.0000000000000000e+00  -2.1966162363720541e-02 -9.4795800942526195e-02 0.0000000000000000e+00  -1.9859151006702616e-02 -8.7622035054204947e-02 0.0000000000000000e+00  -2.6505296352424157e-02 -1.2800848223428368e-01 0.0000000000000000e+00  7.4451725225577561e-04 -4.8634001067839553e-03 0.0000000000000000e+00  -1.6684373900453162e-02 -7.3696737035735135e-02 0.0000000000000000e+00  -1.8199654618762398e-02 -8.0655252422516213e-02 0.0000000000000000e+00  -3.9866819793169190e-03 -3.7498316853225348e-02 0.0000000000000000e+00  -9.3361958772274472e-04 -2.1992872562472253e-02 0.0000000000000000e+00  -1.4461674167811184e-02 -6.4778811647455650e-02 0.0000000000000000e+00  -1.3164104867337014e-02 -6.0121288114620808e-02 0.0000000000000000e+00  -5.4506569776225956e-03 -4.4369932623318620e-02 0.0000000000000000e+00  -7.7706092997907394e-05 -5.0528299004555979e-05 0.0000000000000000e+00  5.4052592686887887e-05 -3.3798996092583027e-05 0.0000000000000000e+00  -8.0855572075761890e-03 -5.5350911039976081e-02 0.0000000000000000e+00  -5.3925166381613059e-03 -2.7096098767707102e-02 0.0000000000000000e+00  -2.0735653905030499e-03 -1.4350622150406341e-02 0.0000000000000000e+00  -4.4735699278505283e-04 -1.8466095983994586e-03 0.0000000000000000e+00  -5.4765894977343277e-04 -3.1787450239598421e-03 0.0000000000000000e+00  -6.9200040836253605e-03 -5.1004328020185521e-02 0.0000000000000000e+00  -2.8318629535122549e-03 -1.7441146802282065e-02 0.0000000000000000e+00  -6.5231305899725780e-03 -3.1615233224312644e-02 0.0000000000000000e+00  -9.3409218727330990e-04 -7.9941055841488955e-03 0.0000000000000000e+00  -2.4661661769916465e-02 -1.1786244247462814e-01 0.0000000000000000e+00  -2.8989842535951774e-02 -1.1689932341949529e-01 0.0000000000000000e+00  8.3777122352979446e-04 -8.0322891763334962e-03 0.0000000000000000e+00  -3.3219049384551955e-04 -8.5621606255178518e-04 0.0000000000000000e+00  -2.7222726959011876e-02 -1.3449708517017842e-01 0.0000000000000000e+00  -1.1826852491252230e-02 -5.3874343424857085e-02 0.0000000000000000e+00  -1.0554427173198527e-02 -4.9483337084089848e-02 0.0000000000000000e+00  6.3109123442390376e-04 -1.4751780736593617e-02 0.0000000000000000e+00  5.4210765781592782e-04 -1.8014806626697776e-03 0.0000000000000000e+00  7.3754501683992435e-04 -3.2173096978098141e-03 0.0000000000000000e+00  -1.8660010525658501e-03 -2.8210412824095470e-02 0.0000000000000000e+00  2.5468950063992324e-04 -1.8083123911885761e-02 0.0000000000000000e+00  -2.4245165834991650e-03 -3.2780721671897765e-02 0.0000000000000000e+00  -2.1152461403511872e-04 -4.3334922767903326e-04 0.0000000000000000e+00  -2.8568206552815653e-02 -1.3876595465368735e-01 0.0000000000000000e+00  -2.3640333839610884e-02 -9.9297808098399581e-02 0.0000000000000000e+00  -2.1259813243290154e-02 -9.1877542075480073e-02 0.0000000000000000e+00  8.8842380466791927e-04 -6.0082408060380121e-03 0.0000000000000000e+00  -1.9372105477077645e-02 -8.4811143822812629e-02 0.0000000000000000e+00  -2.5510221758598760e-02 -1.2422501174317083e-01 0.0000000000000000e+00  -1.7818118297279844e-02 -7.7866853822596907e-02 0.0000000000000000e+00  -1.6270480470233190e-02 -7.0925610832016081e-02 0.0000000000000000e+00  -1.2433961619885119e-03 -2.4458677836103771e-02 0.0000000000000000e+00  -1.5390740276961370e-02 -6.7355173786602843e-02 0.0000000000000000e+00  -4.3303928457215307e-03 -4.0267173838690780e-02 0.0000000000000000e+00  -1.2705499885619160e-02 -5.7530667296034961e-02 0.0000000000000000e+00  -5.8180191215906323e-03 -4.7093916600042342e-02 0.0000000000000000e+00  -3.2570543293388841e-02 -1.3237473493859211e-01 0.0000000000000000e+00  -2.3227380128961042e-02 -1.1284675694305206e-01 0.0000000000000000e+00  -1.3380785529513773e-03 -9.8674171373751146e-03 0.0000000000000000e+00  3.9501839660556796e-04 -9.1252627350391264e-04 0.0000000000000000e+00  1.9853513800646488e-04 -3.3198629924311839e-04 0.0000000000000000e+00  -1.0324524020051705e-02 -6.4832734114154661e-02 0.0000000000000000e+00  -9.9669843749124586e-03 -4.6064826234400842e-02 0.0000000000000000e+00  -1.2139784607846836e-02 -7.1528920183260278e-02 0.0000000000000000e+00  -1.7209723644012659e-02 -9.2424930269567024e-02 0.0000000000000000e+00  -1.3782619333555172e-02 -7.8411836610024988e-02 0.0000000000000000e+00  -1.5319407929287886e-02 -8.5362950844679639e-02 0.0000000000000000e+00  -8.2321126967746464e-03 -3.9625572388457722e-02 0.0000000000000000e+00  -8.5946702667321455e-03 -5.8519107607606979e-02 0.0000000000000000e+00  -4.8528907891052771e-03 -2.3935069421812189e-02 0.0000000000000000e+00  -7.6231232708211093e-03 -3.5053396629037753e-02 0.0000000000000000e+00  -2.1057730596584768e-02 -1.0489927761417966e-01 0.0000000000000000e+00  -3.8691894300725295e-03 -2.0183896374653575e-02 0.0000000000000000e+00  -1.9838567006076707e-02 -9.9605819097676990e-02 0.0000000000000000e+00  -8.9000036075806129e-04 -6.1346209755372642e-03 0.0000000000000000e+00  -7.7494562626325878e-04 -4.3687835282110290e-03 0.0000000000000000e+00  -3.1740509238784603e-02 -1.2794769759346228e-01 0.0000000000000000e+00  -3.0620584229250767e-02 -1.2201733537953104e-01 0.0000000000000000e+00  -1.6970660865686091e-02 -8.9977344505589710e-02 0.0000000000000000e+00  -1.5229635341163571e-02 -8.2959999623310604e-02 0.0000000000000000e+00  -1.1899702041115066e-02 -6.9098197734260430e-02 0.0000000000000000e+00  -1.9062044447630183e-02 -9.7162164405381043e-02 0.0000000000000000e+00  -1.3713424739342906e-02 -7.6021395801155203e-02 0.0000000000000000e+00  -1.0025877661989075e-02 -6.2528008952928288e-02 0.0000000000000000e+00  -8.6860405088782840e-03 -4.1834687285882091e-02 0.0000000000000000e+00  1.0108215737264464e-03 -9.8602724050311490e-03 0.0000000000000000e+00  -2.8143442726083035e-02 -1.1223177239724294e-01 0.0000000000000000e+00  -2.6277015442919133e-02 -1.0669828491007370e-01 0.0000000000000000e+00  8.1846487