<?xml version="1.0"?>
<VTKFile type="UnstructuredGrid"  version="0.1"  >
<UnstructuredGrid>
<Piece  NumberOfPoints="439" NumberOfCells="725">
<Points>
<DataArray  type="Float64"  NumberOfComponents="3"  format="ascii">0.5984571994374515 0.1757531997334775 0  0.5997429627188754 0.1956132024203076 0  0.2489897949 0.21 0  0.2489897949 0.19 0  0.5990995858160421 0.1856837251771749 0  0.2496355385699469 0.2060260530378829 0  0.249959460510575 0.2020130349814059 0  0.2499594605105767 0.1979869650186357 0  0.24963553856995 0.1939739469621422 0  0.253967852053137 0.2099648741326455 0  0.2589432876304856 0.2099207602143927 0  0.2639144249203118 0.2098651102811169 0  0.268878015820638 0.2097857225993316 0  0.2738345910124762 0.2096973739778172 0  0.2787866426862129 0.2095961328166119 0  0.2837332552112267 0.2094921626909572 0  0.2886741260986212 0.2093824497177108 0  0.2936114695442861 0.2092709919406127 0  0.2985458652106283 0.2091601107276921 0  0.3034775636389718 0.2090527084564064 0  0.3084077486810964 0.2089470001524514 0  0.313337088519652 0.2088471131861661 0  0.3182654979062186 0.2087519687392544 0  0.323195903423959 0.2086618576191819 0  0.3281281083569857 0.2085777113523214 0  0.3330624299334898 0.2084970904497706 0  0.3379998267781333 0.2084217823566583 0  0.3429402798322688 0.2083474182757647 0  0.3478838315842729 0.2082741655796822 0  0.35283050889935 0.2082004337414755 0  0.3577801267270584 0.2081235335664269 0  0.3627355468172095 0.2080379706933036 0  0.3676940621563637 0.2079504394382371 0  0.3726560361481229 0.2078529351675389 0  0.3776190859727349 0.2077476607543922 0  0.3825853384363449 0.2076309111063283 0  0.3875521596119277 0.207503917824129 0  0.3925176049237812 0.2073645045458254 0  0.3974838034353155 0.2072029250551834 0  0.4024515820213962 0.2070378849596042 0  0.4074101459385162 0.2068502663984914 0  0.4123678350723156 0.2066410972919382 0  0.4173250968637126 0.2064276493446552 0  0.4222728255339704 0.2061903011949471 0  0.4272231341357426 0.2059435761766313 0  0.4321644642974279 0.2056842431689623 0  0.4371056248330207 0.2054154791770445 0  0.4420411164977888 0.2051405516491999 0  0.4469732723149902 0.2048606286939961 0  0.4519029741548057 0.2045785125694503 0  0.4568295094316298 0.2042951990944089 0  0.4617540956791109 0.2040101066620856 0  0.4666766696147428 0.2037254266849236 0  0.4715969966542378 0.2034413314563503 0  0.4765180510645755 0.2031564184121486 0  0.4814377451135217 0.2028715608840348 0  0.4863565759699474 0.2025872578947994 0  0.491278840117316 0.2023032358897961 0  0.4962019673994585 0.2020186009610191 0  0.5011267897345709 0.2017346493756548 0  0.5060565328507773 0.2014521543164907 0  0.5109898555601619 0.2011688958539118 0  0.51592736891057 0.2008856710453544 0  0.5208687020841294 0.2006024730043905 0  0.525813967663324 0.2003169872140257 0  0.5307622369593914 0.2000293445561539 0  0.5357118263652693 0.1997382381395069 0  0.5406588792078357 0.1994447326028482 0  0.5456036484573606 0.199143763807263 0  0.5505483584903718 0.1988355489394823 0  0.5554892177013288 0.1985296007441141 0  0.5604207600898355 0.1982116272493067 0  0.5653503061351318 0.1978927003337295 0  0.570271749149654 0.1975709497713602 0  0.5751890892080259 0.1972427132125684 0  0.580102856935187 0.196917277561478 0  0.5850130905688246 0.1965883441281529 0  0.5899226970266633 0.1962607047266323 0  0.5948325952914462 0.1959359199713049 0  0.5935511682845335 0.1760709967684346 0  0.588649157519731 0.1763904443109908 0  0.5837493370772813 0.1767121382804962 0  0.5788494664156308 0.1770297654767809 0  0.573948958391988 0.177343352093796 0  0.5690431828024077 0.1776547902461964 0  0.5641317164871804 0.1779593739771373 0  0.5592171719136059 0.1782586362760499 0  0.5542912001881301 0.1785569973351449 0  0.5493605703887879 0.1788497760988683 0  0.544422506582019 0.179144353880351 0  0.5394788711604059 0.1794341572994748 0  0.5345363110233853 0.1797228892346024 0  0.5295900749081277 0.180017366306682 0  0.5246428152650302 0.1803066829380371 0  0.5197003262398481 0.1805966467350404 0  0.5147575450761672 0.1808907610180395 0  0.5098194339291089 0.1811799807895236 0  0.5048862114669045 0.1814699170993912 0  0.4999544102439416 0.18176038062617 0  0.495028808176827 0.1820464299522812 0  0.4901044417933285 0.1823329588540707 0  0.4851806239634045 0.1826163407837376 0  0.4802607127115892 0.1828983672444376 0  0.4753384188217832 0.1831824153942641 0  0.4704147074161769 0.1834628304800901 0  0.4654935073611473 0.1837455777540549 0  0.4605703397964965 0.1840305149648483 0  0.4556473913851036 0.1843143486962275 0  0.4507273983798717 0.1846005235392576 0  0.4458123181729122 0.1848859793924745 0  0.4408983848970441 0.1851692485912951 0  0.4359909354093314 0.1854477111365233 0  0.4310861835110062 0.1857196391155166 0  0.4261874652537946 0.18598125102835 0  0.4212908658239561 0.1862253182598063 0  0.4163998340421682 0.1864586362192665 0  0.4115053395111023 0.1866716608877131 0  0.4066112550957806 0.1868678879904442 0  0.4017146244478575 0.1870457947358464 0  0.3968111466228 0.1872068383324142 0  0.3918991868442135 0.1873561957019029 0  0.3869817353996005 0.1874915119272399 0  0.3820668053568561 0.1876166855111014 0  0.3771432732999527 0.187731985793399 0  0.3722211864135565 0.1878350548525924 0  0.3672946523295546 0.1879319579391075 0  0.3623677454369542 0.1880192957047304 0  0.3574366943195146 0.1881008213805807 0  0.3525023863497203 0.1881762875407106 0  0.3475659732123579 0.1882489828903005 0  0.3426246823830308 0.1883215685037579 0  0.3376803199266887 0.1883953338239375 0  0.3327348224864822 0.1884732095203317 0  0.3277891577241741 0.1885570849351764 0  0.3228431032957535 0.1886429320900457 0  0.3178988822809981 0.1887353821853827 0  0.31295416290109 0.1888322608840856 0  0.3080122059176672 0.1889330178015921 0  0.3030716874247444 0.1890391522864095 0  0.2981338858117026 0.1891479012245792 0  0.2931996138798845 0.1892593521151316 0  0.2882689886919537 0.1893712160234458 0  0.2833421816580461 0.189479683544604 0  0.2784215034582726 0.1895855124292905 0  0.2735037592468411 0.1896807778729112 0  0.2685941402426455 0.1897674398660109 0  0.2636866089448702 0.1898450281578641 0  0.2587830744178665 0.1899057500921888 0  0.2538841900401848 0.1899476722452998 0  0.5987782895284567 0.1807179872544168 0  0.599420292715796 0.1906483591163441 0  0.2589662395021863 0.2004934884850187 0  0.5425307906660343 0.1893252876615606 0  0.567561599706604 0.1877456597163107 0  0.277418698173903 0.2004216826281244 0  0.513225061252528 0.1909238475427961 0  0.528053976924695 0.1900734522745494 0  0.2944158241667161 0.1985335569105248 0  0.5819767394425418 0.1863636016950375 0  0.3103021857794756 0.198863571124756 0  0.33687436014418 0.1992516581899096 0  0.498429320035054 0.1917704006362468 0  0.3551376090257426 0.1981557547403259 0  0.4836625846780229 0.1926153559460376 0  0.3705899631973166 0.1979087344049872 0  0.3897447454334489 0.1974445129028239 0  0.4685136411078787 0.1931230048848886 0  0.4537767650862359 0.1944398702584226 0  0.4041941730795195 0.1970822765501787 0  0.4193288353056289 0.1963449427570292 0  0.4383857658760446 0.195318341902516 0  0.3201215979947791 0.1987095860120871 0  0.5577694356749698 0.1883922947749313 0  0.4277955548169797 0.1957654949970225 0  0.3466268752761656 0.1984309789523804 0  0.3812316376667575 0.1978157243987236 0  0.2860052449875505 0.1994773777466096 0  0.5901739211118021 0.1845202685582566 0  0.2679816967279965 0.2014846670680751 0  0.4612937615860195 0.1962588355486362 0  0.4908177823811408 0.1945596020304903 0  0.5055965096342523 0.1937135158774675 0  0.3970778425212096 0.1949729385995159 0  0.47605740389909 0.195406213757431 0  0.520409563705316 0.1928671029546583 0  0.44652186957153 0.1971186825311524 0  0.5352467670135356 0.1920114710130723 0  0.4118491673596704 0.1944272269981587 0  0.3625082168150824 0.1957857348401229 0  0.3032293592394651 0.1967911512281366 0  0.5744239626951831 0.1850751771803874 0  0.5496698533851548 0.1860144131346624 0  0.3281076485216127 0.2014360525515078 0  0.5480319067764622 0.1928435499141899 0  0.3300336290734945 0.1946833051594461 0  0.5370761788783819 0.1857519818666436 0  0.5222394950430178 0.186614065649531 0  0.5074222902737604 0.1874678225071195 0  0.5769781358869021 0.1910225211651963 0  0.3011653903433252 0.2029689634266845 0  0.4778769455189371 0.1891618420650901 0  0.4926394501192592 0.188317000857489 0  0.395093653589751 0.2011660218667488 0  0.3604325533767664 0.2019520190271075 0  0.4587514367515695 0.1902648704924015 0  0.448348478076161 0.190873870823346 0  0.40992514006356 0.2006355594467344 0  0.2557628094045003 0.1960521819586085 0  0.2550219117616517 0.2034195839557182 0  0.4347115530893778 0.1993179444060273 0  0.3744020288191982 0.1940368339356704 0  0.3404217361186877 0.1944092917533287 0  0.2811739628021064 0.1955865904852989 0  0.2911162154568062 0.1953965508772255 0  0.42461988970757 0.2000344987765224 0  0.3499552399974612 0.1942726904594173 0  0.3845170958045255 0.1936239086073606 0  0.316440885700605 0.1949260889076516 0  0.561737868818546 0.1919305117303576 0  0.5615561179942231 0.1842273621023352 0  0.3161922262074927 0.2026485933902903 0  0.2709934732869969 0.195715435730216 0  0.586792586015021 0.1912082721616945 0  0.4341229593632167 0.1910298296731514 0  0.4238774152444313 0.1919904595775324 0  0.3401933521286816 0.2031735286828396 0  0.2809032647149126 0.2043285627223632 0  0.2914292912239762 0.2040974168201469 0  0.3747288317450725 0.2023475738753607 0  0.3498639636529248 0.2034149813630825 0  0.3845245575493558 0.2027609612643655 0  0.2647493967990464 0.1960596135472887 0  0.5937224475822844 0.1900669432029949 0  0.5312221395476221 0.1856093984370933 0  0.5163895185009395 0.1864676037252453 0  0.3069740328737405 0.2033155595715807 0  0.5015859417935219 0.1873212326120279 0  0.5712326714699859 0.1918753867622052 0  0.4868139650998182 0.1881691620844486 0  0.4720958252380989 0.189007676126679 0  0.3662692482102521 0.2023444464553633 0  0.46447
[...]
<PointData  Vectors="d"> 
<DataArray  type="Float64"  Name="d"  NumberOfComponents="3" format="ascii">-1.5428005625483432e-03 -1.4246800266522542e-02 0.0000000000000000e+00  -2.5703728112464418e-04 -1.4386797579692410e-02 0.0000000000000000e+00  0.0000000000000000e+00 0.0000000000000000e+00 0.0000000000000000e+00  0.0000000000000000e+00 0.0000000000000000e+00 0.0000000000000000e+00  -9.0041418395812617e-04 -1.4316274822825209e-02 0.0000000000000000e+00  0.0000000000000000e+00 0.0000000000000000e+00 0.0000000000000000e+00  0.0000000000000000e+00 0.0000000000000000e+00 0.0000000000000000e+00  0.0000000000000000e+00 0.0000000000000000e+00 0.0000000000000000e+00  0.0000000000000000e+00 0.0000000000000000e+00 0.0000000000000000e+00  3.4251447507830429e-05 -3.5125867354496412e-05 0.0000000000000000e+00  6.5881319231367308e-05 -7.9239785607361721e-05 0.0000000000000000e+00  9.3212903419767274e-05 -1.3488971888300284e-04 0.0000000000000000e+00  1.1299809810805840e-04 -2.1427740066837033e-04 0.0000000000000000e+00  1.2576758431926169e-04 -3.0262602218282335e-04 0.0000000000000000e+00  1.3401355243757081e-04 -4.0386718338802783e-04 0.0000000000000000e+00  1.3682037183297498e-04 -5.0783730904268155e-04 0.0000000000000000e+00  1.3388555360468936e-04 -6.1755028228927065e-04 0.0000000000000000e+00  1.2742329363391337e-04 -7.2900805938727728e-04 0.0000000000000000e+00  1.1801325435740505e-04 -8.3988927230797513e-04 0.0000000000000000e+00  1.0590597707208116e-04 -9.4729154359367979e-04 0.0000000000000000e+00  9.2285313578366752e-05 -1.0529998475485183e-03 0.0000000000000000e+00  7.7819446515419685e-05 -1.1528868138339693e-03 0.0000000000000000e+00  6.2423127463688647e-05 -1.2480312607455516e-03 0.0000000000000000e+00  4.9022939585730379e-05 -1.3381423808180623e-03 0.0000000000000000e+00  3.7422166994051639e-05 -1.4222886476786547e-03 0.0000000000000000e+00  2.7938037869071132e-05 -1.5029095502294154e-03 0.0000000000000000e+00  2.1529176904733243e-05 -1.5782176433416424e-03 0.0000000000000000e+00  1.8176525411192957e-05 -1.6525817242352462e-03 0.0000000000000000e+00  1.7922571796894771e-05 -1.7258344203177824e-03 0.0000000000000000e+00  2.0794181255452336e-05 -1.7995662585245367e-03 0.0000000000000000e+00  2.6606303345877791e-05 -1.8764664335730789e-03 0.0000000000000000e+00  3.8220687878563270e-05 -1.9620293066963104e-03 0.0000000000000000e+00  5.2930321414109964e-05 -2.0495605617629050e-03 0.0000000000000000e+00  7.1098607544158864e-05 -2.1470648324610287e-03 0.0000000000000000e+00  9.0342726547164008e-05 -2.2523392456078439e-03 0.0000000000000000e+00  1.1278948453270445e-04 -2.3690888936717513e-03 0.0000000000000000e+00  1.3580495449394992e-04 -2.4960821758709443e-03 0.0000000000000000e+00  1.5744456071803845e-04 -2.6354954541746535e-03 0.0000000000000000e+00  1.7983736664504770e-04 -2.7970749448166556e-03 0.0000000000000000e+00  2.0381024709784584e-04 -2.9621150403959123e-03 0.0000000000000000e+00  2.1856845860531853e-04 -3.1497336015085305e-03 0.0000000000000000e+00  2.3245188678454949e-04 -3.3589027080618114e-03 0.0000000000000000e+00  2.4590797256075455e-04 -3.5723506553447379e-03 0.0000000000000000e+00  2.4983093720687242e-04 -3.8096988050529725e-03 0.0000000000000000e+00  2.5633383335071214e-04 -4.0564238233686146e-03 0.0000000000000000e+00  2.5385828940285279e-04 -4.3157568310376697e-03 0.0000000000000000e+00  2.5121311934334529e-04 -4.5845208229554268e-03 0.0000000000000000e+00  2.4289907845594463e-04 -4.8594483508000311e-03 0.0000000000000000e+00  2.3124918999329358e-04 -5.1393713060038154e-03 0.0000000000000000e+00  2.1714532416116275e-04 -5.4214874305497738e-03 0.0000000000000000e+00  1.9987489534330278e-04 -5.7048009055912334e-03 0.0000000000000000e+00  1.8065543719492747e-04 -5.9898933379143905e-03 0.0000000000000000e+00  1.5942366717619944e-04 -6.2745733150764245e-03 0.0000000000000000e+00  1.3594500103798299e-04 -6.5586685436495630e-03 0.0000000000000000e+00  1.1319370570872999e-04 -6.8435815878513826e-03 0.0000000000000000e+00  8.9082049008287051e-05 -7.1284391159651692e-03 0.0000000000000000e+00  6.4107199771247628e-05 -7.4127421052005739e-03 0.0000000000000000e+00  4.2565641509485829e-05 -7.6967641102039363e-03 0.0000000000000000e+00  2.1887217997516644e-05 -7.9813990389808621e-03 0.0000000000000000e+00  2.9038474813782034e-06 -8.2653506243451705e-03 0.0000000000000000e+00  -1.1158741971869272e-05 -8.5478456835092215e-03 0.0000000000000000e+00  -2.1641738225778787e-05 -8.8311041460881669e-03 0.0000000000000000e+00  -2.7934093433924003e-05 -9.1143289546456088e-03 0.0000000000000000e+00  -3.0406625511958473e-05 -9.3975269956095668e-03 0.0000000000000000e+00  -2.8946751976731077e-05 -9.6830127859741551e-03 0.0000000000000000e+00  -2.4483161547855624e-05 -9.9706554438460677e-03 0.0000000000000000e+00  -1.8699461329264816e-05 -1.0261761860493129e-02 0.0000000000000000e+00  -1.5452324400943269e-05 -1.0555267397151817e-02 0.0000000000000000e+00  -1.4488780492377284e-05 -1.0856236192736938e-02 0.0000000000000000e+00  -1.3584453119000677e-05 -1.1164451060517725e-02 0.0000000000000000e+00  -1.6530947817092115e-05 -1.1470399255885813e-02 0.0000000000000000e+00  -2.8794264953101247e-05 -1.1788372750693351e-02 0.0000000000000000e+00  -4.3053925316594678e-05 -1.2107299666270417e-02 0.0000000000000000e+00  -6.5416616457437206e-05 -1.2429050228639797e-02 0.0000000000000000e+00  -9.1882263720134677e-05 -1.2757286787431620e-02 0.0000000000000000e+00  -1.2192024219668407e-04 -1.3082722438522003e-02 0.0000000000000000e+00  -1.5549231420946459e-04 -1.3411655871847145e-02 0.0000000000000000e+00  -1.8969156201738076e-04 -1.3739295273367766e-02 0.0000000000000000e+00  -2.2359900289447630e-04 -1.4064080028695128e-02 0.0000000000000000e+00  -1.5050260098497506e-03 -1.3929003231565300e-02 0.0000000000000000e+00  -1.4632310690269200e-03 -1.3609555689009192e-02 0.0000000000000000e+00  -1.4192458058379920e-03 -1.3287861719503767e-02 0.0000000000000000e+00  -1.3753107618417950e-03 -1.2970234523219028e-02 0.0000000000000000e+00  -1.3320130798634108e-03 -1.2656647906203989e-02 0.0000000000000000e+00  -1.2939829638235519e-03 -1.2345209753803606e-02 0.0000000000000000e+00  -1.2616435734377771e-03 -1.2040626022862740e-02 0.0000000000000000e+00  -1.2323824413826648e-03 -1.1741363723950064e-02 0.0000000000000000e+00  -1.2145484612277784e-03 -1.1443002664855113e-02 0.0000000000000000e+00  -1.2013725549156894e-03 -1.1150223901131727e-02 0.0000000000000000e+00  -1.1956306560852875e-03 -1.0855646119648883e-02 0.0000000000000000e+00  -1.1954603720988630e-03 -1.0565842700525270e-02 0.0000000000000000e+00  -1.1942148035108268e-03 -1.0277110765397677e-02 0.0000000000000000e+00  -1.1966452131351223e-03 -9.9826336933180205e-03 0.0000000000000000e+00  -1.2000991506325106e-03 -9.6933170619628115e-03 0.0000000000000000e+00  -1.1987824701764262e-03 -9.4033532649595714e-03 0.0000000000000000e+00  -1.1977579282544987e-03 -9.1092389819605341e-03 0.0000000000000000e+00  -1.1920633697136711e-03 -8.8200192104763726e-03 0.0000000000000000e+00  -1.1814801263131179e-03 -8.5300829006087868e-03 0.0000000000000000e+00  -1.1694756436388077e-03 -8.2396193738299463e-03 0.0000000000000000e+00  -1.1512720051449923e-03 -7.9535700477187752e-03 0.0000000000000000e+00  -1.1318326830245659e-03 -7.6670411459293219e-03 0.0000000000000000e+00  -1.1118448073298081e-03 -7.3836592162622840e-03 0.0000000000000000e+00  -1.0879503535153462e-03 -7.1016327555623810e-03 0.0000000000000000e+00  -1.0664385377133479e-03 -6.8175846057358146e-03 0.0000000000000000e+00  -1.0463442376914506e-03 -6.5371695199099725e-03 0.0000000000000000e+00  -1.0237385871081602e-03 -6.2544222459450663e-03 0.0000000000000000e+00  -1.0031004461384578e-03 -5.9694850351515892e-03 0.0000000000000000e+00  -9.8224315190666243e-04 -5.6856513037724758e-03 0.0000000000000000e+00  -9.5843045150905727e-04 -5.3994764607423551e-03 0.0000000000000000e+00  -9.2970495285943215e-04 -5.1140206075254817e-03 0.0000000000000000e+00  -8.9983252310250840e-04 -4.8307514087049166e-03 0.0000000000000000e+00  -8.6347630519838193e-04 -4.5522888634767630e-03 0.0000000000000000e+00  -8.2442249790684932e-04 -4.2803608844833186e-03 0.0000000000000000e+00  -7.7933504949191971e-04 -4.0187489716499904e-03 0.0000000000000000e+00  -7.3212877369212401e-04 -3.7746817401937268e-03 0.0000000000000000e+00  -6.7935484983751911e-04 -3.5413637807334775e-03 0.0000000000000000e+00  -6.3004367525703827e-04 -3.3283391122869788e-03 0.0000000000000000e+00  -5.8032238491903879e-04 -3.1321120095557948e-03 0.0000000000000000e+00  -5.3314732719018530e-04 -2.9542052641535750e-03 0.0000000000000000e+00  -4.9281944659013523e-04 -2.7931616675858631e-03 0.0000000000000000e+00  -4.6097351954116925e-04 -2.6438042980970319e-03 0.0000000000000000e+00  -4.3461925850772761e-04 -2.5084880727601769e-03 0.0000000000000000e+00  -4.0574359562613128e-04 -2.3833144888985827e-03 0.0000000000000000e+00  -3.8546994687314217e-04 -2.2680142066010185e-03 0.0000000000000000e+00  -3.6375112762078394e-04 -2.1649451474076279e-03 0.0000000000000000e+00  -3.4647950595388910e-04 -2.0680420608925163e-03 0.0000000000000000e+00  -3.2958069290735091e-04 -1.9807042952695703e-03 0.0000000000000000e+00  -3.1682610469618134e-04 -1.8991786194192711e-03 0.0000000000000000e+00  -3.0732836886866646e-04 -1.8237124592894631e-03 0.0000000000000000e+00  -2.9993580057308708e-04 -1.7510171096995720e-03 0.0000000000000000e+00  -2.9742092426101723e-04 -1.6784314962420119e-03 0.0000000000000000e+00  -2.9797767496489598e-04 -1.6046661760624990e-03 0.0000000000000000e+00  -2.9966940953295965e-04 -1.5267904796682007e-03 0.0000000000000000e+00  -3.0152846620079419e-04 -1.4429150648235679e-03 0.0000000000000000e+00  -3.0377718896369997e-04 -1.3570679099543321e-03 0.0000000000000000e+00  -3.0419249806087835e-04 -1.2646178146171819e-03 0.0000000000000000e+00  -3.0510617231106432e-04 -1.1677391159145808e-03 0.0000000000000000e+00  -3.0325745009098095e-04 -1.0669821984078611e-03 0.0000000000000000e+00  -2.9997023737519349e-04 -9.6084771359054562e-04 0.0000000000000000e+00  -2.9396614477867451e-04 -8.5209877542088638e-04 0.0000000000000000e+00  -2.8443237095857255e-04 -7.4064788486832205e-04 0.0000000000000000e+00  -2.7125185323372127e-04 -6.2878397655426600e-04 0.0000000000000000e+00  -2.5425318148349161e-04 -5.2031645539601815e-04 0.0000000000000000e+00  -2.3112567559902520e-04 -4.1448757070953205e-04 0.0000000000000000e+00  -2.0506418138337002e-04 -3.1922212708877773e-04 0.0000000000000000e+00  -1.7087747994058291e-04 -2.3256013398913073e-04 0.0000000000000000e+00  -1.3460307207746125e-04 -1.5497184213583877e-04 0.0000000000000000e+00  -9.4331893442568641e-05 -9.4249907811144411e-05 0.0000000000000000e+00  -4.9410565473176594e-05 -5.2327754700158930e-05 0.0000000000000000e+00  -1.2217104715434156e-03 -1.4282012745561436e-02 0.0000000000000000e+00  -5.7970728420421501e-04 -1.4351640883628766e-02 0.0000000000000000e+00  -7.1870294629447360e-06 -5.8900857821631825e-05 0.0000000000000000e+00  -6.1544371927309987e-04 -1.0674712338408360e-02 0.0000000000000000e+00  -6.7818977021200989e-04 -1.2224798864588035e-02 0.0000000000000000e+00  -3.2694537899436529e-05 -3.7250931406830124e-04 0.0000000000000000e+00  -6.2452212436898903e-04 -8.9784951062957287e-03 0.0000000000000000e+00  -6.2702356904301723e-04 -9.8288903745474415e-03 0.0000000000000000e+00  -9.5071039048605290e-05 -7.5763393001383229e-04 0.0000000000000000e+00  -8.0134369595074022e-04 -1.3179378405297431e-02 0.0000000000000000e+00  -1.1065387744996512e-04 -1.1068874561417506e-03 0.0000000000000000e+00  -1.2581539767505084e-04 -1.5778030534871370e-03 0.0000000000000000e+00  -5.8884622499194984e-04 -8.1319420128434516e-03 0.0000000000000000e+00  -1.4400854516185546e-04 -1.8442452597349512e-03 0.0000000000000000e+00  -5.2416446516967148e-04 -7.2869867030473838e-03 0.0000000000000000e+00  -1.4740819323853159e-04 -2.1055032903816947e-03 0.0000000000000000e+00  -1.4351207680062818e-04 -2.5554870972589526e-03 0.0000000000000000e+00  -4.7211394139467979e-04 -6.4186675407807772e-03 0.0000000000000000e+00  -3.8096659796057640e-04 -5.5601297414871187e-03 0.0000000000000000e+00  -1.5931832231358983e-04 -3.0153808007456874e-03 0.0000000000000000e+00  -2.2225643832786366e-04 -3.6550572430765621e-03 0.0000000000000000e+00  -3.1621198840656113e-04 -4.6674204021611865e-03 0.0000000000000000e+00  -1.2567703089107275e-04 -1.2992982025528052e-03 0.0000000000000000e+00  -6.3591843311530530e-04 -1.1598821010426462e-02 0.0000000000000000e+00  -2.7115987173382806e-04 -4.0834098238016368e-03 0.0000000000000000e+00  -1.3911935038175778e-04 -1.7201162270570533e-03 0.0000000000000000e+00  -1.4099689913318748e-04 -2.3353707807284066e-03 0.0000000000000000e+00  -6.3092704659342295e-05 -5.6416682400855600e-04 0.0000000000000000e+00  -9.4846006631764445e-04 -1.3724647376617799e-02 0.0000000000000000e+00  -7.6194178661542731e-06 -1.9045857865400165e-04 0.0000000000000000e+00  -2.7967865660836322e-04 -5.9915277801640644e-03 0.0000000000000000e+00  -4.1849209520457813e-04 -7.6907612983188036e-03 0.0000000000000000e+00  -4.7118195894602614e-04 -8.5368474513442330e-03 0.0000000000000000e+00  -2.2612354746793736e-04 -2.7766980716805996e-03 0.0000000000000000e+00  -3.4745346039958804e-04 -6.8441495713740530e-03 0.0000000000000000e+00  -4.8954500472960221e-04 -9.3832603741601760e-03 0.0000000000000000e+00  -2.2015355423566873e-04 -5.1316807976475960e-03 0.0000000000000000e+00  -4.8375881334916123e-04 -1.0238892315747577e-02 0.0000000000000000e+00  -2.8621582586115755e-04 -3.3224096730389827e-03 0.0000000000000000e+00  -1.8910931425280942e-04 -1.9639018310690084e-03 0.0000000000000000e+00  -1.4229842243078204e-04 -9.5848544305021037e-04 0.0000000000000000e+00  -8.5700877663977932e-04 -1.2674459490762929e-02 0.0000000000000000e+00  -7.9000253390131296e-04 -1.1114065339104237e-02 0.0000000000000000e+00  -8.5124693071528845e-05 -1.4354689747328952e-03 0.0000000000000000e+00  -3.8599527328375314e-04 -1.0996771655286420e-02 0.0000000000000000e+00  -2.0109801050426833e-04 -1.4763732711029543e-03 0.0000000000000000e+00  -8.4490634542954757e-04 -1.0373199797767445e-02 0.0000000000000000e+00  -8.5017306394727453e-04 -9.5111160148747577e-03 0.0000000000000000e+00  -8.3596071636168130e-04 -8.6573591572903213e-03 0.0000000000000000e+00  -4.9339498180716451e-04 -1.2852297170392402e-02 0.0000000000000000e+00  -1.5707921629421171e-05 -9.0585490890923552e-04 0.0000000000000000e+00  -7.1847123747405912e-04 -6.9633395993139342e-03 0.0000000000000000e+00  -7.8738375400783317e-04 -7.8081808069173112e-03 0.0000000000000000e+00  -1.9753082011979780e-05 -2.7087964688478853e-03 0.0000000000000000e+00  -7.4213355645340030e-05 -1.9227993084875434e-03 0.0000000000000000e+00  -6.3144409414492254e-04 -5.8603111719977468e-03 0.0000000000000000e+00  -5.8410444651943189e-04 -5.2513108410546508e-03 0.0000000000000000e+00  -1.9683725062030419e-05 -3.2392588888646092e-03 0.0000000000000000e+00  -2.3490575696704362e-05 -3.3655067121050595e-05 0.0000000000000000e+00  7.1757307118412374e-06 -2.3059043393300242e-05 0.0000000000000000e+00  -9.1594557091116230e-05 -4.4558133581281464e-03 0.0000000000000000e+00  -2.3417278921169515e-04 -2.1894083001848582e-03 0.0000000000000000e+00  -2.0410046774281128e-04 -1.6375004406602959e-03 0.0000000000000000e+00  -1.2620531687690319e-04 -4.6020170875114646e-04 0.0000000000000000e+00  -1.5242328718300798e-04 -6.8508198770276033e-04 0.0000000000000000e+00  -5.0643874419280598e-05 -3.9187090294320291e-03 0.0000000000000000e+00  -2.0693573545167086e-04 -1.7741017347704211e-03 0.0000000000000000e+00  -2.5171986774389081e-04 -2.4228835868753212e-03 0.0000000000000000e+00  -1.9148283775099952e-04 -1.2333696557183566e-03 0.0000000000000000e+00  -4.1713228679511914e-04 -1.1851137529541565e-02 0.0000000000000000e+00  -8.8526970775385980e-04 -1.1848830258802533e-02 0.0000000000000000e+00  -4.7277375820092082e-05 -1.2193623521788246e-03 0.0000000000000000e+00  -9.5240133765312306e-05 -2.5420860236774001e-04 0.0000000000000000e+00  -5.0885162533939664e-04 -1.3514515941387745e-02 0.0000000000000000e+00  -5.4499728105427889e-04 -4.4353162821000030e-03 0.0000000000000000e+00  -4.5223516336730183e-04 -3.8852385163737797e-03 0.0000000000000000e+00  -6.2598954670798143e-05 -1.6205213462527010e-03 0.0000000000000000e+00  3.4772038819295982e-05 -4.4567905890242822e-04 0.0000000000000000e+00  2.1587910103961969e-05 -6.8353488694861478e-04 0.0000000000000000e+00  -4.2560865420722016e-05 -2.1872801694946776e-03 0.0000000000000000e+00  -5.7685236961876398e-05 -1.7603599555480558e-03 0.0000000000000000e+00  -3.7312798739397957e-06 -2.4143800542704239e-03 0.0000000000000000e+00  -6.5089746459083171e-05 -1.4936075134874610e-04 0.0000000000000000e+00  -6.0231678400481938e-04 -1.3974599155923303e-02 0.0000000000000000e+00  -8.7512149799222002e-04 -1.0035111467993824e-02 0.0000000000000000e+00  -8.7632542783316555e-04 -9.1769061798401570e-03 0.0000000000000000e+00  -1.8292686525204693e-05 -1.0312438156743866e-03 0.0000000000000000e+00  -8.4848501840458727e-04 -8.3232772930585154e-03 0.0000000000000000e+00  -4.2763210344892868e-04 -1.2471416625071001e-02 0.0000000000000000e+00  -7.8904459525591252e-04 -7.4753478206345649e-03 0.0000000000000000e+00  -7.1937229152736325e-04 -6.6325707643104205e-03 0.0000000000000000e+00  -6.0929442501684348e-05 -2.0230084084967063e-03 0.0000000000000000e+00  -6.8515720240917139e-04 -6.1929948724475364e-03 0.0000000000000000e+00  -1.6734860963183107e-06 -2.8999225097478139e-03 0.0000000000000000e+00  -5.8473799016195524e-04 -4.9140904787251050e-03 0.0000000000000000e+00  -1.0248396108081923e-05 -3.4915193665629556e-03 0.0000000000000000e+00  -1.0726460213676444e-03 -1.3405079546698251e-02 0.0000000000000000e+00  -3.5717868197441844e-04 -1.1350507392710594e-02 0.0000000000000000e+00  -2.0850373156048243e-04 -1.3787201859519417e-03 0.0000000000000000e+00  3.9508661005883372e-05 -2.6310167459954746e-04 0.0000000000000000e+00  2.3095220969453809e-05 -1.1651117435005900e-04 0.0000000000000000e+00  -1.1769470840345650e-04 -5.7154162829461397e-03 0.0000000000000000e+00  -4.1541663643420617e-04 -3.5241629148223389e-03 0.0000000000000000e+00  -1.8264722630917293e-04 -6.5707078007875347e-03 0.0000000000000000e+00  -3.5132476754499298e-04 -9.1114114892702144e-03 0.0000000000000000e+00  -2.6086318704471193e-04 -7.4189502773206826e-03 0.0000000000000000e+00  -3.2192261088580016e-04 -8.2661158072230550e-03 0.0000000000000000e+00  -3.0162577386300409e-04 -2.9423701441753168e-03 0.0000000000000000e+00  -7.4814985515863922e-05 -4.8665359921083408e-03 0.0000000000000000e+00  -2.3709689572343391e-04 -2.0488254751415101e-03 0.0000000000000000e+00  -2.9043078883169359e-04 -2.6354143631133749e-03 0.0000000000000000e+00  -3.3791764916857108e-04 -1.0524152438379673e-02 0.0000000000000000e+00  -2.2636964046743522e-04 -1.8908361984516159e-03 0.0000000000000000e+00  -3.9122041207647842e-04 -9.9505237768184665e-03 0.0000000000000000e+00  -1.9253691674815150e-04 -1.0585704026286919e-03 0.0000000000000000e+00  -1.8286580185915922e-04 -8.5332009772959175e-04 0.0000000000000000e+00  -1.0263269578363354e-03 -1.2953801122175784e-02 0.0000000000000000e+00  -9.7239891489046782e-04 -1.2358435849781125e-02 0.0000000000000000e+00  -4.0451885999570977e-04 -8.8331612330663691e-03 0.0000000000000000e+00  -3.6289886341428008e-04 -7.9878558432796131e-03 0.0000000000000000e+00  -2.0835913147520377e-04 -6.2806071093617129e-03 0.0000000000000000e+00  -3.9755215254485399e-04 -9.6720762978437791e-03 0.0000000000000000e+00  -2.9550442260400174e-04 -7.1412606582752503e-03 0.0000000000000000e+00  -1.4210106542456450e-04 -5.4226461359093989e-03 0.0000000000000000e+00  -3.2298621363814536e-04 -3.1182670461171120e-03 0.0000000000000000e+00  -4.6290610674536240e-05 -1.3522457097319745e-03 0.0000000000000000e+00  -9.0614391504959218e-04 -1.1401340878428964e-02 0.0000000000000000e+00  -8.8455027686261368e-04 -1.0837891924268695e-02 0.0000000000000000e+00  -6.0668666727472252e-0