<?xml version="1.0"?>
<VTKFile type="UnstructuredGrid"  version="0.1"  >
<UnstructuredGrid>
<Piece  NumberOfPoints="439" NumberOfCells="725">
<Points>
<DataArray  type="Float64"  NumberOfComponents="3"  format="ascii">0.5907269757670073 0.1201688862650632 0  0.5958833633183473 0.1396174997503958 0  0.2489897949 0.21 0  0.2489897949 0.19 0  0.59330520740856 0.1298931973351017 0  0.2496355385699469 0.2060260530378829 0  0.249959460510575 0.2020130349814059 0  0.2499594605105767 0.1979869650186357 0  0.24963553856995 0.1939739469621422 0  0.2540394547491607 0.2099068493316379 0  0.2590982926180597 0.2098055775555793 0  0.2641552482853601 0.2096770850972571 0  0.2692043162526521 0.2094646746668163 0  0.2742457440500092 0.2092074907092601 0  0.2792885971807012 0.2088868065381657 0  0.284318739664753 0.2085338374510163 0  0.2893360294804168 0.2081237518851773 0  0.2943509436956263 0.2076691409997587 0  0.2993562347623311 0.2071705094061879 0  0.3043614192971794 0.2066131770018346 0  0.3093645353822089 0.2060467628203742 0  0.3143481920255156 0.2054156354777986 0  0.3193413837481874 0.2047500283157433 0  0.3243128052873823 0.2040537660428647 0  0.3292818934924161 0.2033123398062117 0  0.3342426592623821 0.2025454037218967 0  0.339194262411826 0.2017353685330314 0  0.3441364175546954 0.2009083968070083 0  0.3490722900007558 0.2000455035395408 0  0.3539997766157047 0.1991583132907944 0  0.3589185277781909 0.1982476416033219 0  0.3638349534943725 0.1972986831681035 0  0.3687498810309941 0.1963445331774304 0  0.3736527814749604 0.1953568340128996 0  0.3785489562929568 0.1943559441712256 0  0.3834395050501949 0.1933306620511634 0  0.3883238382578063 0.1922882206389267 0  0.3932011084411832 0.191229875612151 0  0.3980758871343253 0.1901454121145374 0  0.4029495999853689 0.189058745165409 0  0.4078120802012289 0.1879498311245814 0  0.4126722350984972 0.1868236656322088 0  0.4175310588489578 0.1856937389659223 0  0.4223811654781758 0.1845447610989959 0  0.4272326583095215 0.1833865981272397 0  0.4320766477676052 0.1822176181783761 0  0.4369210368474153 0.1810364046445716 0  0.441759801739997 0.1798482978727175 0  0.4465956574688011 0.1786497495722726 0  0.4514304644804402 0.1774441115580561 0  0.4562633247833169 0.1762303531837511 0  0.4610924778368524 0.1750093987149116 0  0.4659210442538277 0.1737827863284429 0  0.4707479222216517 0.172549538625928 0  0.4755719608085217 0.1713106716880471 0  0.480395202162737 0.1700674919933158 0  0.4852171116838488 0.1688192555414188 0  0.4900369213515922 0.1675671720508532 0  0.4948560240157796 0.1663119657371173 0  0.4996740598618062 0.1650531631631204 0  0.5044904840267584 0.1637916534543122 0  0.5093062655855427 0.1625280366538687 0  0.5141211365050119 0.1612619756560251 0  0.5189347706727261 0.1599941898895298 0  0.5237479102265084 0.1587250184761618 0  0.5285602740982671 0.1574543656067912 0  0.5333717760719378 0.1561826825132071 0  0.5381825797924293 0.1549102594402025 0  0.5429926826389088 0.1536370513344057 0  0.5478023000058778 0.1523632289776787 0  0.5526117136544851 0.1510893276666645 0  0.5574205038287409 0.1498149024514401 0  0.5622290842625476 0.148540304045295 0  0.5670373198735592 0.1472656492427163 0  0.5718452496872661 0.1459908858613266 0  0.5766530839802639 0.1447161448811337 0  0.5814607400443498 0.1434414334813991 0  0.5862682988458731 0.1421667376624188 0  0.5910758500135885 0.1408921074939014 0  0.5859194640248091 0.1214435364719924 0  0.5811119441768037 0.1227181964094678 0  0.5763044503162293 0.1239928710265438 0  0.5714969587380717 0.1252675425958393 0  0.5666894502287215 0.1265421620972722 0  0.5618819745192887 0.1278167456011026 0  0.5570744857094129 0.1290911522536206 0  0.5522670766713261 0.1303653361529969 0  0.5474596162060292 0.13163936293152 0  0.5426522007143194 0.1329128852552511 0  0.5378448779340408 0.1341861124006964 0  0.5330374368547042 0.1354586378002035 0  0.5282301815834494 0.1367301483172923 0  0.5234232242699282 0.1380014038172551 0  0.5186161068306506 0.1392711949036151 0  0.5138094419452273 0.1405390997453428 0  0.5090032001400235 0.1418065206894724 0  0.5041966559873182 0.1430714128679955 0  0.4993909094221602 0.1443333838077716 0  0.494585771561419 0.1455945944302878 0  0.4897801804299028 0.146851840289763 0  0.4849757466409572 0.1481047405415582 0  0.480172117117855 0.1493565088019148 0  0.4753677343584529 0.1506025084950324 0  0.470564875137346 0.1518422516135285 0  0.4657628839206873 0.1530796388779819 0  0.4609604849384454 0.1543103385861234 0  0.4561593906175264 0.1555320664109163 0  0.4513587987758974 0.1567520964895455 0  0.4465557868378204 0.1579618416231709 0  0.441755574309727 0.1591596256027729 0  0.4369564626655508 0.1603544287898752 0  0.4321556733557197 0.1615359927442745 0  0.4273537563387127 0.162710497865125 0  0.4225518188879606 0.1638733636761083 0  0.4177478865181576 0.1650214533331799 0  0.4129468449555055 0.1661612734595034 0  0.40814256604181 0.1672858835758082 0  0.4033396784758718 0.1683972405002405 0  0.3985368333118152 0.1694928898541727 0  0.3937315931748366 0.1705716483067178 0  0.3889218568122251 0.1716378144773829 0  0.3841097446954668 0.1726845586839463 0  0.3793048214433041 0.1737163996196869 0  0.3744905759642159 0.1747261331433723 0  0.3696823582238555 0.1757124559474817 0  0.3648659062144707 0.1766821729177443 0  0.3600501082704685 0.1776237724036049 0  0.3552290104107936 0.1785484556702331 0  0.3504049148183392 0.1794449359615538 0  0.3455914947142883 0.180320764667851 0  0.340765486382344 0.181166362116184 0  0.3359497382461639 0.1819782494736369 0  0.3311190656052222 0.1827643653305675 0  0.3262907300954221 0.1835050985356763 0  0.3214661018908187 0.1842352115113762 0  0.3166330198419021 0.1849154345214864 0  0.3118155384107458 0.1855613891051903 0  0.3069806968276739 0.1861729111582104 0  0.3021487858398047 0.1867330525042982 0  0.2973118707552065 0.1872642775392328 0  0.2924722666980348 0.1877449776610725 0  0.2876478745857354 0.1881909871712731 0  0.2828044561476128 0.188588947498061 0  0.2779797577310157 0.1889397629664578 0  0.2731407970473177 0.1892324898236687 0  0.2683184089655832 0.1894759500924295 0  0.2634854530938522 0.1896814821418955 0  0.2586521979223579 0.1898263524842149 0  0.2538213125209449 0.1899018832869536 0  0.5920161129913194 0.1250310372204018 0  0.5945942866072097 0.1347553544241547 0  0.2589858554427101 0.2004546914770235 0  0.5380146236862478 0.1445489868419368 0  0.5624125325753584 0.1380534009470615 0  0.2774790377438903 0.1998593735088103 0  0.5094885403190291 0.1519812499243532 0  0.523918427991984 0.1481757612723238 0  0.29437805682189 0.1969675782372299 0  0.5764402429136585 0.1338891307978511 0  0.310260700543539 0.1958756431101396 0  0.3367374030923501 0.1928822502752907 0  0.4950560045051217 0.1557692353997308 0  0.3546474742173509 0.1888846158913501 0  0.4806204849518298 0.1595304923011339 0  0.3698579560538737 0.1859512557912698 0  0.3886467148638837 0.1819836174715454 0  0.4657317765181203 0.1629946972149805 0  0.4514035927928031 0.167107446413697 0  0.4028277734848648 0.1789244180751967 0  0.417656497012167 0.1753750384338044 0  0.4363374624027515 0.1708458257340044 0  0.3200249770895381 0.1946152362046151 0  0.5528537116533683 0.1406088501996991 0  0.4259334666930397 0.173239094651378 0  0.3462744815074381 0.1905623817098117 0  0.3803278921982283 0.1839257698968196 0  0.2860288212994338 0.1984565147489298 0  0.584219855186567 0.1304753785848506 0  0.2680504696238391 0.2012557106748905 0  0.4591819159580066 0.1674722203809505 0  0.4880760558862931 0.1600311040550942 0  0.5025146701003969 0.1562555290723689 0  0.3954198766701728 0.1781790210558544 0  0.473632384483804 0.1637744227565148 0  0.5169489962588204 0.1524579804289822 0  0.4447213712869503 0.1711100222126233 0  0.5313795898949467 0.1486464807312048 0  0.4099038059632424 0.1748744946214126 0  0.3615225157597562 0.1852811830488951 0  0.3030167176181056 0.194493671481102 0  0.568687424043093 0.1340782992732203 0  0.5443889421948331 0.1398724255110949 0  0.3283195643878554 0.1962848924389912 0  0.5441307718725888 0.1469258513264866 0  0.3293309479369004 0.1893231972069678 0  0.5319359075449966 0.1421252935005124 0  0.5175106751943266 0.145937532051543 0  0.5030845880109783 0.1497366142210928 0  0.5723965682581752 0.139469848844402 0  0.3015033438334916 0.2008246663945345 0  0.4742312352016372 0.1572616284130842 0  0.4886580635186589 0.1535147609399935 0  0.394600574764106 0.1846506264218154 0  0.3605188655592435 0.1917219845912243 0  0.4555395923517691 0.1620472564371924 0  0.4453736392219584 0.164608102030535 0  0.4091451749532786 0.1813560016994679 0  0.2557374964709798 0.1960431872055287 0  0.2550512812708555 0.2034094685859245 0  0.4334332579992748 0.1754696141443526 0  0.3729275242596604 0.1814460442265465 0  0.3395329370562044 0.1875526478610208 0  0.2809945417670629 0.1948427512556599 0  0.2908701231722461 0.1940626625029029 0  0.4235727046462769 0.1780375853733719 0  0.3489057003347296 0.1859119772636238 0  0.3828054488059927 0.1791901739694645 0  0.3159314975399735 0.1912808011506885 0  0.5574770762694716 0.1433283856174213 0  0.5557700256407611 0.1357612128216827 0  0.3165518359030347 0.1989820054474275 0  0.2708714305365689 0.1953906188872761 0  0.5821742954248484 0.1377598138873208 0  0.4313309120315679 0.1673976767758055 0  0.4213619076062319 0.1702354523522134 0  0.3406126876447574 0.1962501347274411 0  0.2811733017162498 0.2035762024710348 0  0.2917813378287012 0.2027114455168818 0  0.3747251231247354 0.1895753643770887 0  0.3502718687079493 0.1949473136420953 0  0.3844676666255077 0.1881859032017419 0  0.2646775528733236 0.1959044086710501 0  0.588828405882966 0.1352865184987987 0  0.5261479957891222 0.1431557191004414 0  0.5117226516067768 0.1469633945999425 0  0.3073681809725299 0.200625767140835 0  0.4972968549708162 0.1507551096821332 0  0.5668668994170354 0.1414272075089094 0  0.4828709939297812 0.1545221051478262 0  0.4684865231197848 0.1582380871649588 0  0.3663602710748064 0.19108
[...]
<PointData  Vectors="d"> 
<DataArray  type="Float64"  Name="d"  NumberOfComponents="3" format="ascii">-9.2730242329926559e-03 -6.9831113734936848e-02 0.0000000000000000e+00  -4.1166366816527333e-03 -7.0382500249604227e-02 0.0000000000000000e+00  0.0000000000000000e+00 0.0000000000000000e+00 0.0000000000000000e+00  0.0000000000000000e+00 0.0000000000000000e+00 0.0000000000000000e+00  -6.6947925914400417e-03 -7.0106802664898396e-02 0.0000000000000000e+00  0.0000000000000000e+00 0.0000000000000000e+00 0.0000000000000000e+00  0.0000000000000000e+00 0.0000000000000000e+00 0.0000000000000000e+00  0.0000000000000000e+00 0.0000000000000000e+00 0.0000000000000000e+00  0.0000000000000000e+00 0.0000000000000000e+00 0.0000000000000000e+00  1.0585414353144394e-04 -9.3150668362165540e-05 0.0000000000000000e+00  2.2088630680548618e-04 -1.9442244442075088e-04 0.0000000000000000e+00  3.3403626846799622e-04 -3.2291490274293427e-04 0.0000000000000000e+00  4.3929853012215681e-04 -5.3532533318369083e-04 0.0000000000000000e+00  5.3692062185233631e-04 -7.9250929073990031e-04 0.0000000000000000e+00  6.3596804692596224e-04 -1.1131934618342763e-03 0.0000000000000000e+00  7.2230482535929209e-04 -1.4661625489836825e-03 0.0000000000000000e+00  7.9578893540017221e-04 -1.8762481148226614e-03 0.0000000000000000e+00  8.6689744497408865e-04 -2.3308590002412977e-03 0.0000000000000000e+00  9.2838280606033366e-04 -2.8294905938120456e-03 0.0000000000000000e+00  9.8976163527963925e-04 -3.3868229981654507e-03 0.0000000000000000e+00  1.0490720146908573e-03 -3.9532371796257640e-03 0.0000000000000000e+00  1.0889229523790239e-03 -4.5843645222014371e-03 0.0000000000000000e+00  1.1383089694325475e-03 -5.2499716842566435e-03 0.0000000000000000e+00  1.1659248030091525e-03 -5.9462339571352682e-03 0.0000000000000000e+00  1.1912073024243823e-03 -6.6876601937882994e-03 0.0000000000000000e+00  1.2081673667612637e-03 -7.4545962781033216e-03 0.0000000000000000e+00  1.2159648105975712e-03 -8.2646314669686024e-03 0.0000000000000000e+00  1.2143142478378080e-03 -9.0916031929917651e-03 0.0000000000000000e+00  1.2063809882797212e-03 -9.9544964604591467e-03 0.0000000000000000e+00  1.1900618976102733e-03 -1.0841686709205656e-02 0.0000000000000000e+00  1.1650073544781645e-03 -1.1752358396678125e-02 0.0000000000000000e+00  1.1376273650414135e-03 -1.2701316831896497e-02 0.0000000000000000e+00  1.1087491960446061e-03 -1.3655466822569571e-02 0.0000000000000000e+00  1.0678439343816452e-03 -1.4643165987100347e-02 0.0000000000000000e+00  1.0202130467691453e-03 -1.5644055828774397e-02 0.0000000000000000e+00  9.6695609838277734e-04 -1.6669337948836647e-02 0.0000000000000000e+00  9.0748360037254611e-04 -1.7711779361073220e-02 0.0000000000000000e+00  8.4094807811998433e-04 -1.8770124387848950e-02 0.0000000000000000e+00  7.7192106565479276e-04 -1.9854587885462672e-02 0.0000000000000000e+00  7.0182821107039439e-04 -2.0941254834590986e-02 0.0000000000000000e+00  6.2050272131817174e-04 -2.2050168875418583e-02 0.0000000000000000e+00  5.3685191296606741e-04 -2.3176334367791145e-02 0.0000000000000000e+00  4.5186995780602035e-04 -2.4306261034077677e-02 0.0000000000000000e+00  3.5817088141224782e-04 -2.5455238901004137e-02 0.0000000000000000e+00  2.6585800712949952e-04 -2.6613401872760203e-02 0.0000000000000000e+00  1.6604175958001823e-04 -2.7782381821623854e-02 0.0000000000000000e+00  6.6625133738050954e-05 -2.8963595355428355e-02 0.0000000000000000e+00  -3.8415679335905865e-05 -3.0151702127282441e-02 0.0000000000000000e+00  -1.4636565619571053e-04 -3.1350250427727364e-02 0.0000000000000000e+00  -2.5536435020425980e-04 -3.2555888441943896e-02 0.0000000000000000e+00  -3.6630975296950342e-04 -3.3769646816248923e-02 0.0000000000000000e+00  -4.8096240506357918e-04 -3.4990601285088428e-02 0.0000000000000000e+00  -5.9620169373877615e-04 -3.6217213671557176e-02 0.0000000000000000e+00  -7.1312943154809778e-04 -3.7450461374072076e-02 0.0000000000000000e+00  -8.3289655034504055e-04 -3.8689328311952875e-02 0.0000000000000000e+00  -9.5346090177634169e-04 -3.9932508006684207e-02 0.0000000000000000e+00  -1.0753570863272406e-03 -4.1180744458581206e-02 0.0000000000000000e+00  -1.1993531242143847e-03 -4.2432827949146830e-02 0.0000000000000000e+00  -1.3240561656813563e-03 -4.3688034262882716e-02 0.0000000000000000e+00  -1.4498260252833292e-03 -4.4946836836879576e-02 0.0000000000000000e+00  -1.5772075659907555e-03 -4.6208346545687742e-02 0.0000000000000000e+00  -1.7052317128446858e-03 -4.7471963346131268e-02 0.0000000000000000e+00  -1.8341664989917981e-03 -4.8738024343974895e-02 0.0000000000000000e+00  -1.9643380369153908e-03 -5.0005810110470186e-02 0.0000000000000000e+00  -2.0950041887918798e-03 -5.1274981523838151e-02 0.0000000000000000e+00  -2.2264460226719138e-03 -5.2545634393208820e-02 0.0000000000000000e+00  -2.3587497546607153e-03 -5.3817317486792859e-02 0.0000000000000000e+00  -2.4917517398072137e-03 -5.5089740559797477e-02 0.0000000000000000e+00  -2.6254545989442043e-03 -5.6362948665594319e-02 0.0000000000000000e+00  -2.7596429376130927e-03 -5.7636771022321294e-02 0.0000000000000000e+00  -2.8940349946605798e-03 -5.8910672333335495e-02 0.0000000000000000e+00  -3.0290505260477480e-03 -6.0185097548559933e-02 0.0000000000000000e+00  -3.1642757979005193e-03 -6.1459695954704963e-02 0.0000000000000000e+00  -3.2998458925522184e-03 -6.2734350757283730e-02 0.0000000000000000e+00  -3.4357217844798414e-03 -6.4009114138673398e-02 0.0000000000000000e+00  -3.5716931971193676e-03 -6.5283855118866266e-02 0.0000000000000000e+00  -3.7078428386842859e-03 -6.6558566518600884e-02 0.0000000000000000e+00  -3.8440897428076905e-03 -6.7833262337581246e-02 0.0000000000000000e+00  -3.9803442807520408e-03 -6.9107892506098653e-02 0.0000000000000000e+00  -9.1367302695740272e-03 -6.8556463528007511e-02 0.0000000000000000e+00  -9.0004444119543801e-03 -6.7281803590532235e-02 0.0000000000000000e+00  -8.8641325668899831e-03 -6.6007128973456189e-02 0.0000000000000000e+00  -8.7278184394011041e-03 -6.4732457404160657e-02 0.0000000000000000e+00  -8.5915212431298196e-03 -6.3457837902727812e-02 0.0000000000000000e+00  -8.4551912469423875e-03 -6.2183254398897395e-02 0.0000000000000000e+00  -8.3188743512052094e-03 -6.0908847746379391e-02 0.0000000000000000e+00  -8.1824776836625472e-03 -5.9634663847003097e-02 0.0000000000000000e+00  -8.0461324433287150e-03 -5.8360637068480020e-02 0.0000000000000000e+00  -7.9097422293842364e-03 -5.7087114744748930e-02 0.0000000000000000e+00  -7.7732593040634908e-03 -5.5813887599303516e-02 0.0000000000000000e+00  -7.6368946778009542e-03 -5.4541362199796592e-02 0.0000000000000000e+00  -7.5003442434468243e-03 -5.3269851682707786e-02 0.0000000000000000e+00  -7.3634958513349733e-03 -5.1998596182744931e-02 0.0000000000000000e+00  -7.2268075850122062e-03 -5.0728805096384874e-02 0.0000000000000000e+00  -7.0896667647972937e-03 -4.9460900254657159e-02 0.0000000000000000e+00  -6.9521028643982083e-03 -4.8193479310527657e-02 0.0000000000000000e+00  -6.8148413115043070e-03 -4.6928587132004512e-02 0.0000000000000000e+00  -6.6767821710574590e-03 -4.5666616192228379e-02 0.0000000000000000e+00  -6.5381143261614670e-03 -4.4405405569712196e-02 0.0000000000000000e+00  -6.3998997520691939e-03 -4.3148159710236979e-02 0.0000000000000000e+00  -6.2605278353958845e-03 -4.1895259458441775e-02 0.0000000000000000e+00  -6.1203516528793170e-03 -4.0643491198085170e-02 0.0000000000000000e+00  -5.9809287066515948e-03 -3.9397491504967602e-02 0.0000000000000000e+00  -5.8399822221505858e-03 -3.8157748386471499e-02 0.0000000000000000e+00  -5.6981677331809037e-03 -3.6920361122018061e-02 0.0000000000000000e+00  -5.5567610098100359e-03 -3.5689661413876639e-02 0.0000000000000000e+00  -5.4140496251085307e-03 -3.4467933589083677e-02 0.0000000000000000e+00  -5.2708357611130179e-03 -3.3247903510454473e-02 0.0000000000000000e+00  -5.1300419935604163e-03 -3.2038158376829079e-02 0.0000000000000000e+00  -4.9864488160446590e-03 -3.0840374397227061e-02 0.0000000000000000e+00  -4.8417547545957030e-03 -2.9645571210124785e-02 0.0000000000000000e+00  -4.6987383588098517e-03 -2.8464007255725562e-02 0.0000000000000000e+00  -4.5568496702004368e-03 -2.7289502134874969e-02 0.0000000000000000e+00  -4.4149814153260436e-03 -2.6126636323891610e-02 0.0000000000000000e+00  -4.2751080794906074e-03 -2.4978546666820138e-02 0.0000000000000000e+00  -4.1323439365000833e-03 -2.3838726540496610e-02 0.0000000000000000e+00  -3.9928171445493656e-03 -2.2714116424191810e-02 0.0000000000000000e+00  -3.8518990048276914e-03 -2.1602759499759500e-02 0.0000000000000000e+00  -3.7109384632326220e-03 -2.0507110145827335e-02 0.0000000000000000e+00  -3.5723728945536012e-03 -1.9428351693282206e-02 0.0000000000000000e+00  -3.4383035515296394e-03 -1.8362185522617109e-02 0.0000000000000000e+00  -3.3066099626414022e-03 -1.7315441316053681e-02 0.0000000000000000e+00  -3.1677275091781787e-03 -1.6283600380313151e-02 0.0000000000000000e+00  -3.0381672826099147e-03 -1.5273866856627769e-02 0.0000000000000000e+00  -2.9025793173218383e-03 -1.4287544052518319e-02 0.0000000000000000e+00  -2.7752256210377708e-03 -1.3317827082255674e-02 0.0000000000000000e+00  -2.6472178593928667e-03 -1.2376227596395138e-02 0.0000000000000000e+00  -2.5245100134172098e-03 -1.1451544329766925e-02 0.0000000000000000e+00  -2.4047999002498209e-03 -1.0555064038446206e-02 0.0000000000000000e+00  -2.2744142986425983e-03 -9.6792353321490145e-03 0.0000000000000000e+00  -2.1566169249479885e-03 -8.8336378838159788e-03 0.0000000000000000e+00  -2.0285593554895944e-03 -8.0217505263631434e-03 0.0000000000000000e+00  -1.9154262907929067e-03 -7.2356346694325280e-03 0.0000000000000000e+00  -1.7999560949529241e-03 -6.4949014643236637e-03 0.0000000000000000e+00  -1.6807785938983974e-03 -5.7647884886238088e-03 0.0000000000000000e+00  -1.5700549371569816e-03 -5.0845654785135492e-03 0.0000000000000000e+00  -1.4437306626554555e-03 -4.4386108948097263e-03 0.0000000000000000e+00  -1.3347665400842031e-03 -3.8270888417895449e-03 0.0000000000000000e+00  -1.2228718223149344e-03 -3.2669474957017601e-03 0.0000000000000000e+00  -1.1159812012747875e-03 -2.7357224607671799e-03 0.0000000000000000e+00  -1.0117795528082664e-03 -2.2550223389275490e-03 0.0000000000000000e+00  -8.9236595945189282e-04 -1.8090128287269617e-03 0.0000000000000000e+00  -7.9197869191668425e-04 -1.4110525019390234e-03 0.0000000000000000e+00  -6.7287140285590935e-04 -1.0602370335422652e-03 0.0000000000000000e+00  -5.6802638090660141e-04 -7.6751017633127369e-04 0.0000000000000000e+00  -4.4660875700278140e-04 -5.2404990757052661e-04 0.0000000000000000e+00  -3.3575892309543079e-04 -3.1851785810452037e-04 0.0000000000000000e+00  -2.2520838895129564e-04 -1.7364751578505166e-04 0.0000000000000000e+00  -1.1228808471304952e-04 -9.8116713046362983e-05 0.0000000000000000e+00  -7.9838870086805930e-03 -6.9968962779576538e-02 0.0000000000000000e+00  -5.4057133927903709e-03 -7.0244645575818151e-02 0.0000000000000000e+00  1.2428911060852181e-05 -9.7697865816836436e-05 0.0000000000000000e+00  -5.1316106990598499e-03 -5.5451013158032129e-02 0.0000000000000000e+00  -5.8272569014576310e-03 -6.1917057633837196e-02 0.0000000000000000e+00  2.7645032087882858e-05 -9.3481843338235140e-04 0.0000000000000000e+00  -4.3610430578678505e-03 -4.7921092724738740e-02 0.0000000000000000e+00  -4.7625725017541639e-03 -5.1726581376772975e-02 0.0000000000000000e+00  -1.3283838387465879e-04 -2.3236126033086891e-03 0.0000000000000000e+00  -6.3378402248341200e-03 -6.5653849302483774e-02 0.0000000000000000e+00  -1.5213911338651849e-04 -4.0948154707582318e-03 0.0000000000000000e+00  -2.6277244950490952e-04 -7.9472109681060690e-03 0.0000000000000000e+00  -3.9621617549241680e-03 -4.4133107249359378e-02 0.0000000000000000e+00  -6.3414335355351859e-04 -1.1115384108710736e-02 0.0000000000000000e+00  -3.5662641913628175e-03 -4.0371850347950961e-02 0.0000000000000000e+00  -8.7941533668143385e-04 -1.4062981904099056e-02 0.0000000000000000e+00  -1.2415426463657281e-03 -1.8016382528537402e-02 0.0000000000000000e+00  -3.2539785311531183e-03 -3.6546975210688948e-02 0.0000000000000000e+00  -2.7541388913934527e-03 -3.2892553586212785e-02 0.0000000000000000e+00  -1.5257179169682414e-03 -2.1173239275727725e-02 0.0000000000000000e+00  -1.8945947317899083e-03 -2.4624961566301295e-02 0.0000000000000000e+00  -2.3645154616998049e-03 -2.9139936570672820e-02 0.0000000000000000e+00  -2.2229793613225197e-04 -5.3936480100247909e-03 0.0000000000000000e+00  -5.5516424547167537e-03 -5.9382265585658636e-02 0.0000000000000000e+00  -2.1332479956737271e-03 -2.6609810169446073e-02 0.0000000000000000e+00  -4.9151311910936317e-04 -9.5887134696258040e-03 0.0000000000000000e+00  -1.0447423676625143e-03 -1.6225325282632427e-02 0.0000000000000000e+00  -3.9516392776026654e-05 -1.5850298216884440e-03 0.0000000000000000e+00  -6.9025259915524370e-03 -6.7769537350023792e-02 0.0000000000000000e+00  6.1153477976438935e-05 -4.1941497183845878e-04 0.0000000000000000e+00  -2.3915242846212900e-03 -3.4778142947849783e-02 0.0000000000000000e+00  -3.1602185900522239e-03 -4.2219259273714872e-02 0.0000000000000000e+00  -3.5530214928015174e-03 -4.5994834256442914e-02 0.0000000000000000e+00  -1.8840893985046766e-03 -1.9570615615342121e-02 0.0000000000000000e+00  -2.7724728756856470e-03 -3.8475940572290333e-02 0.0000000000000000e+00  -3.9501124512251904e-03 -4.9792382899836243e-02 0.0000000000000000e+00  -2.0206518388152326e-03 -3.1140341116176695e-02 0.0000000000000000e+00  -4.3509359319380391e-03 -5.3603882597615032e-02 0.0000000000000000e+00  -2.2315772222892198e-03 -2.2875142049785083e-02 0.0000000000000000e+00  -1.1748103695789650e-03 -1.2468453622296791e-02 0.0000000000000000e+00  -3.5494004379058340e-04 -3.2559651900848749e-03 0.0000000000000000e+00  -6.5935474287298103e-03 -6.3671337397929989e-02 0.0000000000000000e+00  -6.0709137242229488e-03 -5.7256052962671819e-02 0.0000000000000000e+00  1.2679117317129852e-04 -6.5866290872493745e-03 0.0000000000000000e+00  -4.2871301771573436e-03 -5.6914470242989734e-02 0.0000000000000000e+00  -9.0377914709844796e-04 -6.8364812235812726e-03 0.0000000000000000e+00  -5.9851776788147765e-03 -5.3999888163898654e-02 0.0000000000000000e+00  -5.5789929126386648e-03 -5.0187649612862768e-02 0.0000000000000000e+00  -5.1736629791437928e-03 -4.6388567443316986e-02 0.0000000000000000e+00  -5.0749626105341342e-03 -6.4404969491186695e-02 0.0000000000000000e+00  3.2224556853680127e-04 -3.0501519410592163e-03 0.0000000000000000e+00  -4.3641815547739637e-03 -3.8863553251319828e-02 0.0000000000000000e+00  -4.7687703546081643e-03 -4.2610420724412762e-02 0.0000000000000000e+00  -5.1283190765701817e-04 -1.9224191913781160e-02 0.0000000000000000e+00  1.2098826831751165e-05 -1.2152833744370749e-02 0.0000000000000000e+00  -3.8432884939455440e-03 -3.4077925227206887e-02 0.0000000000000000e+00  -3.5589433007221331e-03 -3.1517079633865672e-02 0.0000000000000000e+00  -7.9964883534332861e-04 -2.2518816636131121e-02 0.0000000000000000e+00  -4.8803509217372330e-05 -4.2649820200726460e-05 0.0000000000000000e+00  3.6545239915671419e-05 -3.3174413186882676e-05 0.0000000000000000e+00  -1.3698896471940074e-03 -2.8304143619802866e-02 0.0000000000000000e+00  -1.7086773487495306e-03 -1.4780198009308789e-02 0.0000000000000000e+00  -1.0928995302260955e-03 -8.4941443329682141e-03 0.0000000000000000e+00  -3.0562635192047088e-04 -1.2040409383901910e-03 0.0000000000000000e+00  -3.9851557174312225e-04 -2.0189703620253547e-03 0.0000000000000000e+00  -1.0978289357123155e-03 -2.5915622432582455e-02 0.0000000000000000e+00  -1.2564753981833994e-03 -1.0134814930564036e-02 0.0000000000000000e+00  -1.9633668662767719e-03 -1.6856618224771424e-02 0.0000000000000000e+00  -7.0087099838241486e-04 -4.8786574126815059e-03 0.0000000000000000e+00  -4.6779248358692418e-03 -6.0453263642477807e-02 0.0000000000000000e+00  -6.6713620612159057e-03 -6.0314979539455062e-02 0.0000000000000000e+00  3.1233231972180618e-04 -4.8859502950416734e-03 0.0000000000000000e+00  -2.1728288419331797e-04 -5.7902544530774320e-04 0.0000000000000000e+00  -5.1271422155119298e-03 -6.6962974215761473e-02 0.0000000000000000e+00  -3.3370446127029968e-03 -2.8067469179445824e-02 0.0000000000000000e+00  -2.9677428015666687e-03 -2.5640245741692842e-02 0.0000000000000000e+00  3.5673656140508726e-04 -8.5439153016511876e-03 0.0000000000000000e+00  3.0480904015640084e-04 -1.1980393102308045e-03 0.0000000000000000e+00  3.7363451482892756e-04 -2.0695061902137103e-03 0.0000000000000000e+00  -4.6269485757814974e-05 -1.4959489667766692e-02 0.0000000000000000e+00  3.5021981806263134e-04 -1.0228027676535217e-02 0.0000000000000000e+00  -6.0622203722029965e-05 -1.6989438116894077e-02 0.0000000000000000e+00  -1.3693367218173312e-04 -3.0456562758734784e-04 0.0000000000000000e+00  -5.4963584833232987e-03 -6.8755023860119543e-02 0.0000000000000000e+00  -5.9492652564923912e-03 -5.2488790804645795e-02 0.0000000000000000e+00  -5.5431923219959982e-03 -4.8681115305142922e-02 0.0000000000000000e+00  3.7585541226414884e-04 -3.7210362464201582e-03 0.0000000000000000e+00  -5.1375718411102453e-03 -4.4889400222953214e-02 0.0000000000000000e+00  -4.7934041563998065e-03 -6.2919595878366791e-02 0.0000000000000000e+00  -4.7320157652928890e-03 -4.1122404757256911e-02 0.0000000000000000e+00  -4.3286744098415698e-03 -3.7402159726030580e-02 0.0000000000000000e+00  3.0093422052668135e-05 -1.3279800276823022e-02 0.0000000000000000e+00  -4.1188940743184885e-03 -3.5495585843629988e-02 0.0000000000000000e+00  -5.1936202653950800e-04 -2.0512219424306154e-02 0.0000000000000000e+00  -3.5236814630658659e-03 -3.0094325587554906e-02 0.0000000000000000e+00  -8.1254450384992891e-04 -2.3857884527279480e-02 0.0000000000000000e+00  -7.4334623468479792e-03 -6.6508819443212325e-02 0.0000000000000000e+00  -4.2911336927963896e-03 -5.8410355881786405e-02 0.0000000000000000e+00  -9.0257391233604259e-04 -5.9727373481550747e-03 0.0000000000000000e+00  2.4040348791651951e-04 -6.3224733382733010e-04 0.0000000000000000e+00  1.2829928109938244e-04 -2.4438273670993765e-04 0.0000000000000000e+00  -1.6820556327554017e-03 -3.3662714378621034e-02 0.0000000000000000e+00  -2.8576820176231853e-03 -2.3883714203928191e-02 0.0000000000000000e+00  -2.0502313349446601e-03 -3.7343599144304143e-02 0.0000000000000000e+00  -3.2313588421455240e-03 -4.8626235433649134e-02 0.0000000000000000e+00  -2.4527866949701025e-03 -4.1067939266149302e-02 0.0000000000000000e+00  -2.8390324916045080e-03 -4.4834598703242988e-02 0.0000000000000000e+00  -2.3534832224454409e-03 -2.0630156924353858e-02 0.0000000000000000e+00  -1.3694545083315758e-03 -3.0068425997564208e-02 0.0000000000000000e+00  -1.6851245447313866e-03 -1.3337490841267874e-02 0.0000000000000000e+00  -2.2907014019830359e-03 -1.8490853666559136e-02 0.0000000000000000e+00  -3.8627491251625760e-03 -5.4899827445213850e-02 0.0000000000000000e+00  -1.5315528268709713e-03 -1.1539042107854326e-02 0.0000000000000000e+00  -3.8033016993536404e-03 -5.2367712344077423e-02 0.0000000000000000e+00  -6.6145398913515160e-04 -3.7835899826958478e-03 0.0000000000000000e+00  -5.6164255869369710e-04 -2.7329985879350144e-03 0.0000000000000000e+00  -7.2831516050374410e-03 -6.4742668004919207e-02 0.0000000000000000e+00  -7.0814081317725989e-03 -6.2373080096139587e-02 0.0000000000000000e+00  -3.3554622252342996e-03 -4.7354230039243356e-02 0.0000000000000000e+00  -2.9632507411187572e-03 -4.3569711445868846e-02 0.0000000000000000e+00  -2.1284330599004829e-03 -3.6060606212306584e-02 0.0000000000000000e+00  -3.6878089523339178e-03 -5.1125788919534572e-02 0.0000000000000000e+00  -2.5767490251308841e-03 -3.9813561969054841e-02 0.0000000000000000e+00  -1.7402133684942926e-03 -3.2404987896260458e-02 0.0000000000000000e+00  -2.4578042905290180e-03 -2.1705292503832553e-02 0.0000000000000000e+00  4.1337249035838623e-04 -5.9106983007858292e-03 0.0000000000000000e+00  -6.6712378853164703e-03 -5.8419011884947358e-02 0.0000000000000000e+00  -6.3758280729720000e-03 -5.6003290848093232e-02 0.0000000000000000e+00  3.6349049664167234e-0