<?xml version="1.0"?>
<VTKFile type="UnstructuredGrid"  version="0.1"  >
<UnstructuredGrid>
<Piece  NumberOfPoints="439" NumberOfCells="725">
<Points>
<DataArray  type="Float64"  NumberOfComponents="3"  format="ascii">0.5926380447043966 0.1297753915893529 0  0.5968414772197657 0.1491231873963751 0  0.2489897949 0.21 0  0.2489897949 0.19 0  0.5947402646669127 0.1394488743156027 0  0.2496355385699469 0.2060260530378829 0  0.249959460510575 0.2020130349814059 0  0.2499594605105767 0.1979869650186357 0  0.24963553856995 0.1939739469621422 0  0.2540258620672218 0.2099206805589168 0  0.2590695316337708 0.2098434490921331 0  0.2641137526005965 0.2097495478846858 0  0.2691560921181613 0.2095899455186618 0  0.2741953405013172 0.2093941688210857 0  0.2792389729649625 0.2091473323523639 0  0.284273685358041 0.2088723109558351 0  0.2892995975956484 0.2085490483315683 0  0.2943240013229333 0.2081874327937329 0  0.2993398357076957 0.2077875478909926 0  0.3043528296103 0.2073360183997072 0  0.3093638364833723 0.2068746234461127 0  0.3143535690446337 0.2063587500596621 0  0.3193487023959481 0.2058114312596345 0  0.3243216614471328 0.2052401706837214 0  0.3292883688712366 0.2046332324011358 0  0.3342452893170135 0.2040069943540532 0  0.3391906418879722 0.2033487912875022 0  0.34412791512964 0.2026805197910644 0  0.3490585466084432 0.2019878067772259 0  0.3539822802643694 0.2012805979232127 0  0.3589005882220521 0.2005602848612785 0  0.363821909926583 0.1998197767256887 0  0.3687427494335672 0.1990791321420783 0  0.3736613679264389 0.1983195965795563 0  0.3785811616881934 0.1975508254114548 0  0.3835059073684943 0.1967650426318664 0  0.3884350911687369 0.1959636366465853 0  0.3933677768956931 0.1951430773307833 0  0.3983135067399098 0.194289584736621 0  0.4032628977379618 0.1934315896385301 0  0.4082101437643292 0.192536003862353 0  0.4131607402888339 0.1916084680881697 0  0.4181111977363614 0.1906718324697539 0  0.4230505416044365 0.1896959201008844 0  0.4279916665071294 0.18869844386315 0  0.4329164528402881 0.187674886113261 0  0.4378387775657342 0.1866197933813249 0  0.4427467892872127 0.1855467968995954 0  0.4476434042236134 0.1844441930478502 0  0.4525352467941097 0.1833198972740626 0  0.4574172391707992 0.1821717563644299 0  0.4622886538119261 0.1810039717130595 0  0.4671547299948775 0.1798211280931636 0  0.4720111537586369 0.1786213681031069 0  0.4768595351926387 0.1774128015645334 0  0.4817006591959667 0.1761976956589343 0  0.4865327575872251 0.1749755204036869 0  0.4913567789067662 0.1737561720359241 0  0.4961739015722605 0.1725393383993724 0  0.500983286559759 0.1713250482931596 0  0.5057868128303488 0.1701188133197679 0  0.5105852915493566 0.1689218255804198 0  0.515379074258595 0.1677338506473398 0  0.5201736349453199 0.1665548886350468 0  0.5249661355614091 0.1653881227273548 0  0.5297577700650181 0.1642317338068418 0  0.5345498180977312 0.1630865331796535 0  0.5393447705151655 0.1619455888658684 0  0.5441454123470068 0.1608194761048148 0  0.5489439488955031 0.1597126648169361 0  0.5537365585343299 0.1586044190640375 0  0.5585362747925287 0.1575115429298187 0  0.5633238001277777 0.1564303171777556 0  0.5681155430233064 0.1553586434283054 0  0.5729052912527602 0.1543062122853086 0  0.5776919263383471 0.1532551968175344 0  0.5824822511557445 0.152217299168185 0  0.5872682404139716 0.1511858931714298 0  0.5920557357409868 0.150154069224149 0  0.5878528104670752 0.1308195067198377 0  0.5830636412172713 0.1318657440572557 0  0.5782714247550761 0.1329112350616829 0  0.5734803483575029 0.1339561772731715 0  0.5686868910183488 0.1350077982199348 0  0.5638891221951933 0.1360545753335192 0  0.559087103778853 0.1371109673796325 0  0.5542762480618273 0.1381758284441945 0  0.5494587649262883 0.1392422092723167 0  0.5446344319706612 0.1403270749017584 0  0.5397996836413536 0.141414801314825 0  0.5349666570215558 0.1425216715375882 0  0.5301250495835405 0.143651857663299 0  0.5252725296454265 0.1447785443156497 0  0.520428695700545 0.1459272240865168 0  0.5155804127478487 0.147096211770071 0  0.5107263569113265 0.1482646715077258 0  0.5058842755181886 0.1494525323406547 0  0.5010405782408599 0.1506514297371671 0  0.4961974781485012 0.1518509118766375 0  0.4913644008438264 0.1530635790359983 0  0.4865312766342018 0.15427565209261 0  0.4817050400753851 0.1554873254674627 0  0.4768826383703281 0.1567019471112638 0  0.472061392618947 0.1579026891808162 0  0.4672495671591792 0.1590974489275995 0  0.4624366579947869 0.160284569938017 0  0.4576256381204565 0.1614427772431897 0  0.4528210179523556 0.1625970423591194 0  0.4480057163099873 0.1637241239149772 0  0.4431912789751846 0.1648151509104984 0  0.4383816160318836 0.1658952737722137 0  0.4335586321804963 0.1669408377641171 0  0.4287292804537191 0.1679671992044773 0  0.4238928136433179 0.1689681686428551 0  0.4190478715720934 0.1699389207913172 0  0.4142035644013234 0.1708953028863555 0  0.4093504895072193 0.1718238061550681 0  0.4044989885462262 0.1727334846023816 0  0.3996464327233986 0.1736226702281614 0  0.3947916559766193 0.1744911198678022 0  0.3899312789382904 0.175342701611412 0  0.3850710925589984 0.1761728903626153 0  0.3802199306371679 0.1769910308915978 0  0.3753610804214451 0.1777892171055312 0  0.3705103464449092 0.1785703860443932 0  0.3656547943925493 0.1793397961082674 0  0.3608041637926244 0.1800924792444372 0  0.3559519996939259 0.1808324575178336 0  0.3511016090785627 0.18155315231703 0  0.3462612169647204 0.1822596431493992 0  0.3414132323991103 0.1829424990066807 0  0.3365742682202137 0.1835987241858442 0  0.3317220797140584 0.1842346661120425 0  0.3268702026801865 0.1848335353837471 0  0.3220207400896033 0.185423441860077 0  0.3171618530184567 0.1859723406297187 0  0.3123143767129479 0.1864909424677427 0  0.3074490967055302 0.1869815581593203 0  0.3025825286584482 0.1874277291181564 0  0.2977092061459803 0.1878500691989027 0  0.2928306233524821 0.1882310545746338 0  0.2879633362249724 0.1885842126270525 0  0.2830794739113427 0.1888989799247078 0  0.2782105065459675 0.1891759210193703 0  0.2733308160825667 0.1894069585492105 0  0.2684652355978406 0.1895998171171757 0  0.2635923508267503 0.18976245021285 0  0.2587226012093933 0.1898770735579366 0  0.253856974725692 0.1899327390009252 0  0.5936896657921816 0.1346117133370916 0  0.5957928441805026 0.1442865705039216 0  0.2589969606460537 0.2004797941204361 0  0.5395183779289069 0.1516297027808584 0  0.5639241178562227 0.1460912309113828 0  0.2775512964922136 0.2000764055301819 0  0.5109593353874889 0.1583827425489945 0  0.5254035222668931 0.1548610433878785 0  0.2945609967682868 0.1974773466104985 0  0.5779507114556331 0.1426120112357621 0  0.3105053117675158 0.1967348437213284 0  0.3370233536419784 0.1944578314169073 0  0.4965156530134623 0.1619957056243249 0  0.3549879116555222 0.1910811331584364 0  0.4820568673462131 0.1656570181382996 0  0.3702564934296731 0.1887703312222701 0  0.3892028815288528 0.1856839696513935 0  0.4671275747115225 0.1690313262167805 0  0.4527185912245376 0.1729834351700299 0  0.4035631854212769 0.1832803878265326 0  0.4186179704866 0.1803415371902313 0  0.43753510838691 0.1764146512404799 0  0.3203010786965528 0.1957173033601666 0  0.554365625677527 0.1482284135916534 0  0.4270156672133473 0.1784973958919309 0  0.3465946179347663 0.1924548777075015 0  0.3807955369717377 0.1872288739648228 0  0.2861542729239789 0.1988131888870858 0  0.5857717166878715 0.1396111393923133 0  0.2680783842649636 0.2013557341290696 0  0.4605030699504332 0.1734496843348912 0  0.4894946370658661 0.1662026962858485 0  0.5039381846626625 0.1625581532603896 0  0.3961554819678105 0.1821959644778047 0  0.4750180060844441 0.1698630222345955 0  0.5183650354375161 0.1589854023375064 0  0.4459390081846804 0.1768730389174624 0  0.5327949744650818 0.1555117989249233 0  0.4108377247460152 0.179527388344043 0  0.3619710724658185 0.1877581551788585 0  0.3032797960976893 0.1951900201306362 0  0.5702931872366976 0.1424569616166033 0  0.5460231001291287 0.147208268002893 0  0.3285329871383293 0.1976021207455904 0  0.5454895582395846 0.1541792267776605 0  0.3297428201058291 0.1907001679674282 0  0.5335779166063378 0.1490573006402989 0  0.5190973514208996 0.1525042669105462 0  0.5046246651202265 0.1560617726453545 0  0.5737212530882065 0.1479094357751961 0  0.3016222531983297 0.2014810699870061 0  0.4756949713491505 0.1633533592457242 0  0.4901599026946404 0.1596974968163614 0  0.3950585412852738 0.1886329010786615 0  0.3607292671256009 0.194129695395136 0  0.4569401966611045 0.1679753884423326 0  0.446728680309594 0.1703720400028709 0  0.4098248540893297 0.1859899182721649 0  0.255755835325112 0.1960574822491126 0  0.2550500587721476 0.2034175495969004 0  0.4344903036984895 0.1809644691252403 0  0.3735066007174183 0.184416540927981 0  0.339976912089191 0.1892439170866334 0  0.2811545202167506 0.1951157674677844 0  0.2910933645162007 0.1945072845364476 0  0.42448317425692 0.1832226210228196 0  0.3493732798219333 0.1879207141266172 0  0.3834765561438654 0.182616517521157 0  0.3162948931137678 0.1922913756876623 0  0.5588286173059605 0.1510893751803151 0  0.5574663139214637 0.1435767847225141 0  0.3167175246222239 0.1999858236292808 0  0.2709713782089291 0.1955268329754278 0  0.5834327552394002 0.1466699628389691 0  0.4325979235930001 0.1728108559968258 0  0.4225147777834379 0.1753234662343408 0  0.3407746848073046 0.1979300490050515 0  0.2812028267959918 0.203852838681371 0  0.2918463319930301 0.2031726759216011 0  0.3749656158738369 0.1926030259687258 0  0.3504231847705648 0.1969555799017372 0  0.3847540339937894 0.1916796305192498 0  0.264739073391777 0.1959801017229743 0  0.5900957211406989 0.1445447828806679 0  0.5277898801405256 0.1499318315101908 0  0.5133066110477243 0.1534230365109998 0  0.3074973636037489 0.2014121324359137 0  0.4988317415655954 0.1570151650757206 0  0.5681812928038766 0.1495968345721435 0  0.4843641709842144 0.1606663687242046 0  0.4699380987295649 0.1642911420680641 0  0.3665699564985778 0.19373738363917
[...]
<PointData  Vectors="d"> 
<DataArray  type="Float64"  Name="d"  NumberOfComponents="3" format="ascii">-7.3619552956031530e-03 -6.0224608410647140e-02 0.0000000000000000e+00  -3.1585227802343524e-03 -6.0876812603624882e-02 0.0000000000000000e+00  0.0000000000000000e+00 0.0000000000000000e+00 0.0000000000000000e+00  0.0000000000000000e+00 0.0000000000000000e+00 0.0000000000000000e+00  -5.2597353330874688e-03 -6.0551125684397467e-02 0.0000000000000000e+00  0.0000000000000000e+00 0.0000000000000000e+00 0.0000000000000000e+00  0.0000000000000000e+00 0.0000000000000000e+00 0.0000000000000000e+00  0.0000000000000000e+00 0.0000000000000000e+00 0.0000000000000000e+00  0.0000000000000000e+00 0.0000000000000000e+00 0.0000000000000000e+00  9.2261461592701985e-05 -7.9319441083164680e-05 0.0000000000000000e+00  1.9212532251666110e-04 -1.5655090786692390e-04 0.0000000000000000e+00  2.9254058370443774e-04 -2.5045211531409076e-04 0.0000000000000000e+00  3.9107439563137027e-04 -4.1005448133814277e-04 0.0000000000000000e+00  4.8651707316013388e-04 -6.0583117891440589e-04 0.0000000000000000e+00  5.8634383118703393e-04 -8.5266764763602943e-04 0.0000000000000000e+00  6.7725051864731196e-04 -1.1276890441647934e-03 0.0000000000000000e+00  7.5935705063181992e-04 -1.4509516684316805e-03 0.0000000000000000e+00  8.3995507228103899e-04 -1.8125672062670841e-03 0.0000000000000000e+00  9.1198375142485962e-04 -2.2124521090075115e-03 0.0000000000000000e+00  9.8117194840032580e-04 -2.6639816002928755e-03 0.0000000000000000e+00  1.0483731158543526e-03 -3.1253765538872495e-03 0.0000000000000000e+00  1.0942999714971420e-03 -3.6412499403380202e-03 0.0000000000000000e+00  1.1456276171931887e-03 -4.1885687403654861e-03 0.0000000000000000e+00  1.1747809627594872e-03 -4.7598293162784740e-03 0.0000000000000000e+00  1.1976826812449969e-03 -5.3667675988641438e-03 0.0000000000000000e+00  1.2107974213926543e-03 -5.9930056459467978e-03 0.0000000000000000e+00  1.2123442867436364e-03 -6.6512087124977618e-03 0.0000000000000000e+00  1.2058118227823412e-03 -7.3194802089353982e-03 0.0000000000000000e+00  1.1926375959672489e-03 -8.0121932227740205e-03 0.0000000000000000e+00  1.1725655462748873e-03 -8.7194020767873189e-03 0.0000000000000000e+00  1.1470677983396566e-03 -9.4397151387215304e-03 0.0000000000000000e+00  1.1245837972520161e-03 -1.0180223274311248e-02 0.0000000000000000e+00  1.1016175986175364e-03 -1.0920867857921627e-02 0.0000000000000000e+00  1.0764303858601611e-03 -1.1680403420443628e-02 0.0000000000000000e+00  1.0524184420057339e-03 -1.2449174588545242e-02 0.0000000000000000e+00  1.0333584166821606e-03 -1.3234957368133663e-02 0.0000000000000000e+00  1.0187365113030937e-03 -1.4036363353414625e-02 0.0000000000000000e+00  1.0076165326299278e-03 -1.4856922669216760e-02 0.0000000000000000e+00  1.0095406712393583e-03 -1.5710415263378987e-02 0.0000000000000000e+00  1.0151259636633982e-03 -1.6568410361470030e-02 0.0000000000000000e+00  1.0185662844183015e-03 -1.7463996137646928e-02 0.0000000000000000e+00  1.0253571033029883e-03 -1.8391531911830388e-02 0.0000000000000000e+00  1.0320088452095964e-03 -1.9328167530246170e-02 0.0000000000000000e+00  1.0275470076729746e-03 -2.0304079899115632e-02 0.0000000000000000e+00  1.0248662047375528e-03 -2.1301556136849947e-02 0.0000000000000000e+00  1.0058468322631030e-03 -2.2325113886739023e-02 0.0000000000000000e+00  9.8436585205687152e-04 -2.3380206618675049e-02 0.0000000000000000e+00  9.4857186787993160e-04 -2.4453203100404493e-02 0.0000000000000000e+00  9.0138109861664917e-04 -2.5555806952149592e-02 0.0000000000000000e+00  8.4941796346508776e-04 -2.6680102725937328e-02 0.0000000000000000e+00  7.8760463451276841e-04 -2.7828243635570262e-02 0.0000000000000000e+00  7.1521357001008950e-04 -2.8996028286940451e-02 0.0000000000000000e+00  6.3748404731092841e-04 -3.0178871906836418e-02 0.0000000000000000e+00  5.5010210543701829e-04 -3.1378631896893057e-02 0.0000000000000000e+00  4.5467783377188916e-04 -3.2587198435466508e-02 0.0000000000000000e+00  3.5199613145336760e-04 -3.3802304341065716e-02 0.0000000000000000e+00  2.4028881704887559e-04 -3.5024479596313066e-02 0.0000000000000000e+00  1.2050443095969710e-04 -3.6243827964075895e-02 0.0000000000000000e+00  -6.1786092006366443e-06 -3.7460661600627602e-02 0.0000000000000000e+00  -1.4059932733039647e-04 -3.8674951706840432e-02 0.0000000000000000e+00  -2.8087876240024382e-04 -3.9881186680231995e-02 0.0000000000000000e+00  -4.2620574903090509e-04 -4.1078174419580206e-02 0.0000000000000000e+00  -5.7622874540920411e-04 -4.2266149352660272e-02 0.0000000000000000e+00  -7.2547376432168886e-04 -4.3445111364953284e-02 0.0000000000000000e+00  -8.7677885389152242e-04 -4.4611877272645047e-02 0.0000000000000000e+00  -1.0289500559213505e-03 -4.5768266193158283e-02 0.0000000000000000e+00  -1.1807077288675291e-03 -4.6913466820346542e-02 0.0000000000000000e+00  -1.3295610170712946e-03 -4.8054411134131648e-02 0.0000000000000000e+00  -1.4727248908464512e-03 -4.9180523895185131e-02 0.0000000000000000e+00  -1.6179940479876106e-03 -5.0287335183063941e-02 0.0000000000000000e+00  -1.7691901148156836e-03 -5.1395580935962352e-02 0.0000000000000000e+00  -1.9132795622599015e-03 -5.2488457070181439e-02 0.0000000000000000e+00  -2.0695599326706693e-03 -5.3569682822244356e-02 0.0000000000000000e+00  -2.2216227428051524e-03 -5.4641356571694576e-02 0.0000000000000000e+00  -2.3756802189856610e-03 -5.5693787714691426e-02 0.0000000000000000e+00  -2.5328508390365639e-03 -5.6744803182465581e-02 0.0000000000000000e+00  -2.6863317272896696e-03 -5.7782700831814977e-02 0.0000000000000000e+00  -2.8441481747090301e-03 -5.8814106828570141e-02 0.0000000000000000e+00  -3.0004585533538208e-03 -5.9845930775851028e-02 0.0000000000000000e+00  -7.2033838273080613e-03 -5.9180493280162220e-02 0.0000000000000000e+00  -7.0487473714868163e-03 -5.8134255942744240e-02 0.0000000000000000e+00  -6.8971581280432718e-03 -5.7088764938317077e-02 0.0000000000000000e+00  -6.7444288199697815e-03 -5.6043822726828403e-02 0.0000000000000000e+00  -6.5940804535026725e-03 -5.4992201780065260e-02 0.0000000000000000e+00  -6.4480435710383239e-03 -5.3945424666480883e-02 0.0000000000000000e+00  -6.3062562817653867e-03 -5.2889032620367558e-02 0.0000000000000000e+00  -6.1733062931613875e-03 -5.1824171555805446e-02 0.0000000000000000e+00  -6.0469837230694460e-03 -5.0757790727683348e-02 0.0000000000000000e+00  -5.9275109730426365e-03 -4.9672925098241630e-02 0.0000000000000000e+00  -5.8184535967507958e-03 -4.8585198685174948e-02 0.0000000000000000e+00  -5.7076745109489223e-03 -4.7478328462411810e-02 0.0000000000000000e+00  -5.6054762433556263e-03 -4.6348142336700995e-02 0.0000000000000000e+00  -5.5141904758364479e-03 -4.5221455684350251e-02 0.0000000000000000e+00  -5.4142187151177889e-03 -4.4072775913483138e-02 0.0000000000000000e+00  -5.3186959621756725e-03 -4.2903788229928880e-02 0.0000000000000000e+00  -5.2289460930954263e-03 -4.1735328492274217e-02 0.0000000000000000e+00  -5.1272217806339407e-03 -4.0547467659345221e-02 0.0000000000000000e+00  -5.0271133523573557e-03 -3.9348570262832866e-02 0.0000000000000000e+00  -4.9264077390792239e-03 -3.8149088123362457e-02 0.0000000000000000e+00  -4.8156793381456302e-03 -3.6936420964001661e-02 0.0000000000000000e+00  -4.7049978421513095e-03 -3.5724347907389979e-02 0.0000000000000000e+00  -4.5874286953493052e-03 -3.4512674532537230e-02 0.0000000000000000e+00  -4.4660246947764316e-03 -3.3298052888736211e-02 0.0000000000000000e+00  -4.3434647405495930e-03 -3.2097310819183739e-02 0.0000000000000000e+00  -4.2114844946891739e-03 -3.0902551072400551e-02 0.0000000000000000e+00  -4.0805879534685317e-03 -2.9715430061983010e-02 0.0000000000000000e+00  -3.9478021221785479e-03 -2.8557222756810201e-02 0.0000000000000000e+00  -3.8086165846546349e-03 -2.7402957640880615e-02 0.0000000000000000e+00  -3.6801125213936138e-03 -2.6275876085022729e-02 0.0000000000000000e+00  -3.5507441505871285e-03 -2.5184849089501627e-02 0.0000000000000000e+00  -3.4166013882629795e-03 -2.4104726227786411e-02 0.0000000000000000e+00  -3.2957795340334685e-03 -2.3059162235882866e-02 0.0000000000000000e+00  -3.1813255551939993e-03 -2.2032800795522636e-02 0.0000000000000000e+00  -3.0739866599685255e-03 -2.1031831357144832e-02 0.0000000000000000e+00  -2.9751230255548444e-03 -2.0061079208682754e-02 0.0000000000000000e+00  -2.8756244906822824e-03 -1.9104697113644487e-02 0.0000000000000000e+00  -2.7848936791399839e-03 -1.8176193844932007e-02 0.0000000000000000e+00  -2.6925889344734410e-03 -1.7266515397618372e-02 0.0000000000000000e+00  -2.6013390516491930e-03 -1.6377329771838717e-02 0.0000000000000000e+00  -2.5123100927708572e-03 -1.5508880132197948e-02 0.0000000000000000e+00  -2.4288814254643429e-03 -1.4657298388587925e-02 0.0000000000000000e+00  -2.3452620991098478e-03 -1.3827109637384824e-02 0.0000000000000000e+00  -2.2526183153141924e-03 -1.3008969108402204e-02 0.0000000000000000e+00  -2.1676628253807927e-03 -1.2210782894468751e-02 0.0000000000000000e+00  -2.0745910962680337e-03 -1.1429613955606748e-02 0.0000000000000000e+00  -1.9863374429591801e-03 -1.0660203891732587e-02 0.0000000000000000e+00  -1.8931623372371133e-03 -9.9075207555627248e-03 0.0000000000000000e+00  -1.8015207302849632e-03 -9.1675424821662799e-03 0.0000000000000000e+00  -1.7081056400263393e-03 -8.4468476829701444e-03 0.0000000000000000e+00  -1.6046920482105948e-03 -7.7403568506008713e-03 0.0000000000000000e+00  -1.5088709081815701e-03 -7.0575009933193196e-03 0.0000000000000000e+00  -1.4040293814399263e-03 -6.4012758141558899e-03 0.0000000000000000e+00  -1.3124121819566381e-03 -5.7653338879573900e-03 0.0000000000000000e+00  -1.2204835101882678e-03 -5.1664646162529679e-03 0.0000000000000000e+00  -1.1261403951138172e-03 -4.5765581399230025e-03 0.0000000000000000e+00  -1.0412217606022224e-03 -4.0276593702812669e-03 0.0000000000000000e+00  -9.4489236045316430e-04 -3.5090575322573943e-03 0.0000000000000000e+00  -8.6636666222796575e-04 -3.0184418406797166e-03 0.0000000000000000e+00  -7.8912900367147931e-04 -2.5722708818435667e-03 0.0000000000000000e+00  -7.1864581050096687e-04 -2.1499308010973304e-03 0.0000000000000000e+00  -6.5342289836085757e-04 -1.7689454253661055e-03 0.0000000000000000e+00  -5.7690432021511586e-04 -1.4157873729474795e-03 0.0000000000000000e+00  -5.1696092818690007e-04 -1.1010200752921764e-03 0.0000000000000000e+00  -4.4212258790413768e-04 -8.2407898062975059e-04 0.0000000000000000e+00  -3.7800734565770090e-04 -5.9304145078940156e-04 0.0000000000000000e+00  -2.9978212474552170e-04 -4.0018288282435757e-04 0.0000000000000000e+00  -2.2886119019732991e-04 -2.3754978714999524e-04 0.0000000000000000e+00  -1.5480510191594730e-04 -1.2292644206344158e-04 0.0000000000000000e+00  -7.6625879965971135e-05 -6.7260999074893565e-05 0.0000000000000000e+00  -6.3103342078181428e-03 -6.0388286662886675e-02 0.0000000000000000e+00  -4.2071558194976839e-03 -6.0713429496051269e-02 0.0000000000000000e+00  2.3534114404369755e-05 -7.2595222404263482e-05 0.0000000000000000e+00  -3.6278564564003486e-03 -4.8370297219110674e-02 0.0000000000000000e+00  -4.3156716205933945e-03 -5.3879227669515917e-02 0.0000000000000000e+00  9.9903780411231049e-05 -7.1778641201083375e-04 0.0000000000000000e+00  -2.8902479894079461e-03 -4.1519600100097344e-02 0.0000000000000000e+00  -3.2774782268448384e-03 -4.5041299261218318e-02 0.0000000000000000e+00  5.0101562522289823e-05 -1.8138442300401634e-03 0.0000000000000000e+00  -4.8273716828593676e-03 -5.6930968864572815e-02 0.0000000000000000e+00  9.2472110590327970e-05 -3.2356148595694160e-03 0.0000000000000000e+00  2.3178100123424441e-05 -6.3716298264894188e-03 0.0000000000000000e+00  -2.5025132465837114e-03 -3.7906637024765391e-02 0.0000000000000000e+00  -2.9370591538229823e-04 -8.9188668416245002e-03 0.0000000000000000e+00  -2.1298817969795086e-03 -3.4245324510785310e-02 0.0000000000000000e+00  -4.8087796088202829e-04 -1.1243906473098806e-02 0.0000000000000000e+00  -6.8537598139677082e-04 -1.4316030348689343e-02 0.0000000000000000e+00  -1.8581803377509484e-03 -3.0510346208888876e-02 0.0000000000000000e+00  -1.4391404596588496e-03 -2.7016564829879769e-02 0.0000000000000000e+00  -7.9030598055625614e-04 -1.6817269524391852e-02 0.0000000000000000e+00  -9.3312125735665115e-04 -1.9658462809874381e-02 0.0000000000000000e+00  -1.1668694775411759e-03 -2.3571111064197271e-02 0.0000000000000000e+00  5.3803670882701992e-05 -4.2915808544732393e-03 0.0000000000000000e+00  -4.0397284305582109e-03 -5.1762702193704269e-02 0.0000000000000000e+00  -1.0510474753663349e-03 -2.1351508928893197e-02 0.0000000000000000e+00  -1.7137669178106220e-04 -7.6962174719358819e-03 0.0000000000000000e+00  -5.7709759415295323e-04 -1.2922221214629191e-02 0.0000000000000000e+00  8.5935231769168334e-05 -1.2283556835323212e-03 0.0000000000000000e+00  -5.3506644902481066e-03 -5.8633776542561140e-02 0.0000000000000000e+00  8.9068119100904061e-05 -3.1939151765947749e-04 0.0000000000000000e+00  -1.0703702921946833e-03 -2.8800678993909132e-02 0.0000000000000000e+00  -1.7416374104792314e-03 -3.6047667042960613e-02 0.0000000000000000e+00  -2.1295069305356453e-03 -3.9692210068422176e-02 0.0000000000000000e+00  -1.1484841008670631e-03 -1.5553672193391757e-02 0.0000000000000000e+00  -1.3868512750454280e-03 -3.2387341094209508e-02 0.0000000000000000e+00  -2.5340732725294872e-03 -4.3264960991312142e-02 0.0000000000000000e+00  -8.0301494108528794e-04 -2.5377324411337540e-02 0.0000000000000000e+00  -2.9355513618027451e-03 -4.6738564403896551e-02 0.0000000000000000e+00  -1.2976584395163347e-03 -1.8222248327154703e-02 0.0000000000000000e+00  -7.2625366351683550e-04 -9.9914814923333945e-03 0.0000000000000000e+00  -9.1861564206669307e-05 -2.5596165405507155e-03 0.0000000000000000e+00  -4.9877842351252061e-03 -5.5292675054547075e-02 0.0000000000000000e+00  -4.4367557899273602e-03 -4.9920210470873715e-02 0.0000000000000000e+00  3.4021392364496473e-04 -5.2694007806502940e-03 0.0000000000000000e+00  -2.9283438101614075e-03 -4.9661094791815900e-02 0.0000000000000000e+00  -4.9190697816980922e-04 -5.4595104631208462e-03 0.0000000000000000e+00  -4.3431686174737879e-03 -4.7067881024112149e-02 0.0000000000000000e+00  -3.9923166860655578e-03 -4.3620914753859527e-02 0.0000000000000000e+00  -3.6335858698955796e-03 -4.0063409019055259e-02 0.0000000000000000e+00  -3.7502777805025014e-03 -5.5965382560392601e-02 0.0000000000000000e+00  4.4115493337499554e-04 -2.3937483485876746e-03 0.0000000000000000e+00  -2.9004454072606256e-03 -3.2771822418679854e-02 0.0000000000000000e+00  -3.2669311786267391e-03 -3.6427684848044893e-02 0.0000000000000000e+00  -5.4865386489177688e-05 -1.5241917256935047e-02 0.0000000000000000e+00  2.2250039318918389e-04 -9.7451229404589799e-03 0.0000000000000000e+00  -2.4426841846099377e-03 -2.8149793222066614e-02 0.0000000000000000e+00  -2.2039022130863535e-03 -2.5753141661529713e-02 0.0000000000000000e+00  -1.1996969929228447e-04 -1.7884900063434191e-02 0.0000000000000000e+00  -3.0464655085023131e-05 -2.8354776616893681e-05 0.0000000000000000e+00  3.5322741207828944e-05 -2.5093402211063932e-05 0.0000000000000000e+00  -3.1284394797944314e-04 -2.2809288638915130e-02 0.0000000000000000e+00  -1.1296008909916146e-03 -1.1809701307874253e-02 0.0000000000000000e+00  -6.4892449723962333e-04 -6.8028751073555748e-03 0.0000000000000000e+00  -1.4564790223266721e-04 -9.3102472626568531e-04 0.0000000000000000e+00  -1.7527422778846081e-04 -1.5743483284806651e-03 0.0000000000000000e+00  -1.8735932506925475e-04 -2.0730586783134802e-02 0.0000000000000000e+00  -7.8889591097957375e-04 -8.1260780675705795e-03 0.0000000000000000e+00  -1.2922595284039033e-03 -1.3430274673078998e-02 0.0000000000000000e+00  -3.3747542458834712e-04 -3.8680828757076801e-03 0.0000000000000000e+00  -3.3263837993808307e-03 -5.2692274079583941e-02 0.0000000000000000e+00  -4.9750737805132261e-03 -5.2499407638623562e-02 0.0000000000000000e+00  4.7802103891114516e-04 -3.8821321131882812e-03 0.0000000000000000e+00  -1.1733521183303599e-04 -4.4281135715593345e-04 0.0000000000000000e+00  -3.8686824009604597e-03 -5.8052825264113213e-02 0.0000000000000000e+00  -2.0700330512709200e-03 -2.2654289958425541e-02 0.0000000000000000e+00  -1.8148726243607716e-03 -2.0552231859565402e-02 0.0000000000000000e+00  5.1873372395224555e-04 -6.8640010240407275e-03 0.0000000000000000e+00  3.3433411989844191e-04 -9.2140309989467706e-04 0.0000000000000000e+00  4.3862867915787018e-04 -1.6082757854944481e-03 0.0000000000000000e+00  1.9422326334351105e-04 -1.1931828076129546e-02 0.0000000000000000e+00  5.0153588067809664e-04 -8.2197614168933696e-03 0.0000000000000000e+00  2.2574516455971279e-04 -1.3495710799386109e-02 0.0000000000000000e+00  -7.5413153728456212e-05 -2.2887257566316430e-04 0.0000000000000000e+00  -4.2290432255904795e-03 -5.9496759478250255e-02 0.0000000000000000e+00  -4.3073809050887500e-03 -4.5712678394896407e-02 0.0000000000000000e+00  -3.9592328810481624e-03 -4.2221473394085551e-02 0.0000000000000000e+00  5.0503804348314013e-04 -2.9346709513414829e-03 0.0000000000000000e+00  -3.6026852463308971e-03 -3.8629344829365767e-02 0.0000000000000000e+00  -3.4790107695583192e-03 -5.4749968815132707e-02 0.0000000000000000e+00  -3.2388387108597278e-03 -3.4978141180878539e-02 0.0000000000000000e+00  -2.8770988000613442e-03 -3.1349104822925175e-02 0.0000000000000000e+00  2.3977884582416861e-04 -1.0630071224683317e-02 0.0000000000000000e+00  -2.6908126474612095e-03 -2.9506239193414170e-02 0.0000000000000000e+00  -1.7947689431141687e-06 -1.6260999466063714e-02 0.0000000000000000e+00  -2.1976092499987380e-03 -2.4458703128910922e-02 0.0000000000000000e+00  -5.6570358932936753e-05 -1.8989172675264402e-02 0.0000000000000000e+00  -5.7481538344445835e-03 -5.7576951917019038e-02 0.0000000000000000e+00  -2.9580535412377560e-03 -5.0958628991560957e-02 0.0000000000000000e+00  -4.9315351314127304e-04 -4.7561772873339035e-03 0.0000000000000000e+00  2.4534383976114444e-04 -4.8291364533515176e-04 0.0000000000000000e+00  1.2711168422158416e-04 -1.8701753561634825e-04 0.0000000000000000e+00  -4.3174948798846169e-04 -2.7730808823552167e-02 0.0000000000000000e+00  -1.7847757143481843e-03 -1.9078738105099049e-02 0.0000000000000000e+00  -7.1406337285835153e-04 -3.1280221034417910e-02 0.0000000000000000e+00  -1.8651583763800105e-03 -4.2178489120275470e-02 0.0000000000000000e+00  -1.0703235774254833e-03 -3.4924204429811118e-02 0.0000000000000000e+00  -1.4509931965326190e-03 -3.8580472446851949e-02 0.0000000000000000e+00  -1.4906545283319239e-03 -1.6411623212369147e-02 0.0000000000000000e+00  -2.4607142849396020e-04 -2.4389506857195577e-02 0.0000000000000000e+00  -1.1270501476696271e-03 -1.0677294929074285e-02 0.0000000000000000e+00  -1.5096554682630064e-03 -1.4716300094449632e-02 0.0000000000000000e+00  -2.5281823858778621e-03 -4.7894978455970162e-02 0.0000000000000000e+00  -1.0121516712909718e-03 -9.2492684994518824e-03 0.0000000000000000e+00  -2.4379864574137328e-03 -4.5625397345666757e-02 0.0000000000000000e+00  -3.2382554189780725e-04 -2.9833512749442449e-03 0.0000000000000000e+00  -2.7481657236584563e-04 -2.1427571061128216e-03 0.0000000000000000e+00  -5.5764042932114058e-03 -5.6136470858019989e-02 0.0000000000000000e+00  -5.3543125588630712e-03 -5.4194828814562626e-02 0.0000000000000000e+00  -1.9612275635908084e-03 -4.0984428244567293e-02 0.0000000000000000e+00  -1.5585468875874387e-03 -3.7360342764671949e-02 0.0000000000000000e+00  -8.0296700021262215e-04 -3.0034185178535681e-02 0.0000000000000000e+00  -2.3169963244521019e-03 -4.4494889784154321e-02 0.0000000000000000e+00  -1.1910395714489212e-03 -3.3696574703692847e-02 0.0000000000000000e+00  -5.1342586069870314e-04 -2.6547439846216485e-02 0.0000000000000000e+00  -1.5348048934863733e-03 -1.7278732036374603e-02 0.0000000000000000e+00  5.6909960476423142e-04 -4.7207571294914522e-03 0.0000000000000000e+00  -4.9464826684583211e-03 -5.0892909017976051e-02 0.0000000000000000e+00  -4.6779714288247105e-03 -4.8820041281072951e-02 0.0000000000000000e+00  5.3032957085629611e-04 -5.8908285713367