<?xml version="1.0"?>
<VTKFile type="UnstructuredGrid"  version="0.1"  >
<UnstructuredGrid>
<Piece  NumberOfPoints="439" NumberOfCells="725">
<Points>
<DataArray  type="Float64"  NumberOfComponents="3"  format="ascii">0.5944561739286803 0.1380806981116329 0  0.5982903089045292 0.157755347661463 0  0.2489897949 0.21 0  0.2489897949 0.19 0  0.5963732720959839 0.1479180335123394 0  0.2496355385699469 0.2060260530378829 0  0.249959460510575 0.2020130349814059 0  0.2499594605105767 0.1979869650186357 0  0.24963553856995 0.1939739469621422 0  0.2540119153601765 0.2099313763176744 0  0.2590408020530011 0.2098574560687743 0  0.264068442006241 0.2097638229880021 0  0.2690907786852473 0.2096088635040822 0  0.2741079019620557 0.20942136089784 0  0.2791268005543429 0.2091875732107199 0  0.2841368129764536 0.2089303490764126 0  0.2891383043077511 0.2086312832140035 0  0.2941389258142956 0.2082998172270637 0  0.2991334369938579 0.2079361169177712 0  0.304129336989696 0.207529571662584 0  0.3091239960195775 0.2071165237056828 0  0.3141061960601626 0.2066555683003827 0  0.3190965956971907 0.2061696654543736 0  0.3240719682173082 0.2056606682154375 0  0.3290473126665069 0.2051182701314614 0  0.3340175461801655 0.2045568234543115 0  0.3389827699997597 0.2039630722031138 0  0.3439417686108235 0.2033564211909663 0  0.3488977413535592 0.2027227145577911 0  0.3538486444987292 0.2020705184106347 0  0.358794194540509 0.2014002982665944 0  0.3637400182027187 0.2007010857328713 0  0.3686850312740026 0.1999979309729261 0  0.3736227477976974 0.1992687870943646 0  0.3785560715640228 0.1985292923172427 0  0.3834864089225296 0.1977709449421706 0  0.3884129101968521 0.1969991969843848 0  0.3933347731464236 0.1962149207198437 0  0.3982558574751276 0.195410502635929 0  0.4031761927708802 0.1946042387893917 0  0.4080887365519842 0.1937803921804379 0  0.4129998451317533 0.1929431117167807 0  0.4179099734509812 0.1921027490943165 0  0.422813657570633 0.1912474056217665 0  0.4277183734011124 0.1903847924102868 0  0.432617166320888 0.189513648404884 0  0.4375160403507691 0.1886328183946936 0  0.4424103151890846 0.1877465748858986 0  0.4473018920268557 0.1868521654209991 0  0.4521922451965649 0.185952110723484 0  0.4570805659459828 0.1850456725531055 0  0.4619654821493203 0.1841337170966175 0  0.4668494002671152 0.1832172965082156 0  0.4717313849762292 0.1822957634636132 0  0.4766105982788753 0.181370040473832 0  0.4814886638158591 0.1804410411503648 0  0.4863650945542469 0.1795082791728902 0  0.4912394425862318 0.1785727977118706 0  0.4961128047868704 0.177635090728336 0  0.5009848585148251 0.1766948798768643 0  0.5058553639442269 0.1757529244272518 0  0.5107250744617529 0.1748096375236078 0  0.5155937634275478 0.1738648407765076 0  0.5204613781098172 0.1729191083946248 0  0.5253284398536506 0.1719726565008493 0  0.5301947668025178 0.1710254749553322 0  0.5350604070137089 0.170077906728688 0  0.5399255335120638 0.1691300854075914 0  0.5447901914942921 0.1681820666297263 0  0.5496545142743227 0.1672339588709745 0  0.5545186933480484 0.1662858871352179 0  0.5593825397606113 0.1653377913483454 0  0.5642462418867186 0.164389760989619 0  0.5691098425936264 0.16344182237796 0  0.573973313029408 0.1624939829687316 0  0.5788367593708691 0.1615461760981712 0  0.5837001705285099 0.1605984518730124 0  0.5885635493132302 0.1596507535458703 0  0.593426932739071 0.1587030556820156 0  0.5895927513563259 0.139028483316345 0  0.584729281377265 0.1399762478208101 0  0.5798658021637561 0.1409239974334227 0  0.575002272204817 0.1418717655005617 0  0.5701386953006097 0.1428195609703074 0  0.5652751071443689 0.1437673710497538 0  0.5604114816631698 0.1447152116391345 0  0.5555478393807476 0.1456630513377178 0  0.5506841997418566 0.1466109135738768 0  0.5458205553194531 0.1475586736453608 0  0.5409569687009469 0.1485063605591285 0  0.5360933451931097 0.1494538294742781 0  0.531229792560358 0.1504008605818817 0  0.526366421031974 0.1513477418374027 0  0.521502953586809 0.1522938980519604 0  0.5166396640887944 0.153238917364849 0  0.5117766520431419 0.1541835870610561 0  0.50691332045824 0.1551266999806556 0  0.5020502972127255 0.1560677570868211 0  0.4971876761656171 0.1570082071045755 0  0.4923244143714074 0.157945930578269 0  0.4874615715212999 0.1588803657173077 0  0.4825992504068083 0.1598138723684363 0  0.4777358275677927 0.1607431950422093 0  0.4728729492100326 0.1616676564469594 0  0.4680105475868127 0.1625902578698295 0  0.4631472248556389 0.1635078434231275 0  0.4582841939325997 0.1644184847664797 0  0.4534213942687262 0.1653278517246491 0  0.448556020055361 0.1662295327516604 0  0.4436921280579202 0.1671219470447012 0  0.4388289667304392 0.1680121202255546 0  0.4339639224571759 0.1688922805241173 0  0.4290978116719155 0.1697671585364279 0  0.4242314098023459 0.1706332529312264 0  0.4193633886678003 0.1714881802620096 0  0.4144975384240714 0.1723369363970819 0  0.4096293493994992 0.1731741366986962 0  0.4047624666667712 0.1740014181860148 0  0.3998959781499916 0.174816900533392 0  0.3950282283585349 0.1756196144685465 0  0.3901574931309134 0.1764126856098013 0  0.3852857682689478 0.1771909656550589 0  0.3804201311195923 0.177958314561178 0  0.375548506917421 0.1787085246290979 0  0.3706825384240289 0.1794413094063989 0  0.3658111682879011 0.1801610948628377 0  0.3609416706153494 0.1808596259648822 0  0.3560689508057037 0.1815450663290116 0  0.3511952720081706 0.1822090315346352 0  0.3463304596292697 0.182857828750274 0  0.341457476617396 0.1834833051685813 0  0.3365934026826893 0.1840838575192298 0  0.3317191621286129 0.184664456589095 0  0.3268481834825042 0.1852113068388986 0  0.3219802242570179 0.1857502809412022 0  0.3171075465610649 0.1862518816579073 0  0.31224720850045 0.1867285467708774 0  0.3073750303621286 0.1871791996175351 0  0.3025062518975657 0.1875920565757051 0  0.2976344337479635 0.187983391817586 0  0.292761714205351 0.1883375068144877 0  0.287900718584287 0.1886663300863049 0  0.2830267227168769 0.1889594883097471 0  0.2781670846058563 0.1892182210239418 0  0.273297843484156 0.1894340731231134 0  0.2684412607440226 0.1896137936850815 0  0.263577334932078 0.1897653802999736 0  0.258713586606463 0.1898722611278542 0  0.2538518687373368 0.1899281133515929 0  0.5954147365022691 0.1429993720056387 0  0.5973318031466455 0.1528366984090351 0  0.2589834725055459 0.2004805457740617 0  0.5404416539809433 0.1588184920139441 0  0.5651235329894674 0.1539776586833405 0  0.2774778430752559 0.2001086189454786 0  0.5115944919882127 0.1643321058337008 0  0.5261901114241603 0.1614947477591038 0  0.2944325180021596 0.1975869421205935 0  0.5793437566258532 0.1507698925250846 0  0.310342134013268 0.1969684974691084 0  0.3369107988211839 0.1949999425373262 0  0.4969951957290331 0.167158551893512 0  0.3549821874225462 0.1918328697647286 0  0.482390589385678 0.1699662353481232 0  0.370322761065161 0.189668055565091 0  0.3893024354986321 0.1867226985853286 0  0.4673477497374101 0.1724589584774333 0  0.452814302931247 0.1756466488616416 0  0.4036374959794842 0.1844754359157122 0  0.4186495803119488 0.1818089486174475 0  0.437562482203101 0.1784308999811123 0  0.3201441039690393 0.1960540379812084 0  0.5554525147507693 0.1558837383026297 0  0.4270376478528494 0.180178743420185 0  0.3465399712471965 0.1931106600201792 0  0.3808877888187672 0.1882033897176194 0  0.2860511212629682 0.1988791106773238 0  0.5873035643652313 0.147893357750547 0  0.2680369057675409 0.2013674769563933 0  0.4605404133160775 0.1765019235999029 0  0.4897762419451291 0.1709461919057984 0  0.5043813735611675 0.16812778024523 0  0.3962817234463151 0.1833059648643134 0  0.4751633941970817 0.1737412599083988 0  0.5189807686748813 0.1652948197919108 0  0.4459045757023258 0.179216399967305 0  0.5335761815247639 0.1624540664089373 0  0.4109396106243736 0.1808482893972567 0  0.3620286822409209 0.188573643194339 0  0.3031414285722275 0.195359880641833 0  0.5716246095242042 0.1504430098902853 0  0.5470868537085497 0.1545911773140147 0  0.3283654303897376 0.1980471569772227 0  0.5463642986842685 0.1615856341226851 0  0.3296549843903893 0.1911350612729334 0  0.5345585289332118 0.1560079099693727 0  0.5199662258781613 0.1588484194686133 0  0.5053724398607971 0.1616814193764124 0  0.5749539466179393 0.1560485340807267 0  0.3014447380812728 0.2016434352074797 0  0.4761765921337565 0.1672964203027274 0  0.4907763154036431 0.1645003352393094 0  0.3950976448326379 0.1897210787860058 0  0.3607063918281963 0.1949567887535004 0  0.4572549034975892 0.1708669646840007 0  0.4469600933487484 0.1727765701163168 0  0.4098016073308568 0.1872728540469615 0  0.2557511068620363 0.1960544791804592 0  0.2550420190758089 0.2034181381808435 0  0.4343823337312021 0.1828632246590618 0  0.373626129329095 0.1853312554845885 0  0.3399364575023914 0.1898002278856563 0  0.2810846013173471 0.1951616954331848 0  0.2909925316105164 0.1945982004169277 0  0.4243926602271338 0.1848233831737504 0  0.3493841828214271 0.1885894769110082 0  0.3836203183633237 0.1836103832444678 0  0.3161705440607629 0.1925753767974538 0  0.559868138154807 0.1588935934235338 0  0.5586725164881963 0.1512585481129762 0  0.3165208895948879 0.200292644938567 0  0.2709332824263606 0.1955437500911996 0  0.5847866310899397 0.1549982749298715 0  0.4327802328915311 0.174684057712618 0  0.4226571082581119 0.1769050933290393 0  0.3406335250054559 0.1985372637690196 0  0.2811002691893907 0.2038976970369395 0  0.2916979877787595 0.2032674217860731 0  0.3749935433638449 0.1935454294203962 0  0.3503285623214892 0.1976807836852643 0  0.3847901823145073 0.1926857300283151 0  0.2647162188794082 0.1959850088490712 0  0.5915651401778115 0.1529817696734014 0  0.528736580727728 0.1566508469621919 0  0.5141438889629338 0.1594888977254128 0  0.3073038434513074 0.2016250325896025 0  0.499549597978928 0.1623170549764151 0  0.5693275845961184 0.1576269686952136 0  0.4849527471830745 0.165127878544383 0  0.4703942437074181 0.1678995909212611 0  0.3665687132395226 0.1946190144343995 0  0.46285976
[...]
<PointData  Vectors="d"> 
<DataArray  type="Float64"  Name="d"  NumberOfComponents="3" format="ascii">-5.5438260713195717e-03 -5.1919301888367179e-02 0.0000000000000000e+00  -1.7096910954708757e-03 -5.2244652338537027e-02 0.0000000000000000e+00  0.0000000000000000e+00 0.0000000000000000e+00 0.0000000000000000e+00  0.0000000000000000e+00 0.0000000000000000e+00 0.0000000000000000e+00  -3.6267279040161841e-03 -5.2081966487660683e-02 0.0000000000000000e+00  0.0000000000000000e+00 0.0000000000000000e+00 0.0000000000000000e+00  0.0000000000000000e+00 0.0000000000000000e+00 0.0000000000000000e+00  0.0000000000000000e+00 0.0000000000000000e+00 0.0000000000000000e+00  0.0000000000000000e+00 0.0000000000000000e+00 0.0000000000000000e+00  7.8314754547182259e-05 -6.8623682325597658e-05 0.0000000000000000e+00  1.6339574174683747e-04 -1.4254393122572893e-04 0.0000000000000000e+00  2.4722998934886413e-04 -2.3617701199790458e-04 0.0000000000000000e+00  3.2576096271733817e-04 -3.9113649591778258e-04 0.0000000000000000e+00  3.9907853389884129e-04 -5.7863910216001519e-04 0.0000000000000000e+00  4.7417142056760002e-04 -8.1242678928007694e-04 0.0000000000000000e+00  5.4037813705994997e-04 -1.0696509235873371e-03 0.0000000000000000e+00  5.9806376273446491e-04 -1.3687167859964783e-03 0.0000000000000000e+00  6.5487956364334860e-04 -1.7001827729363100e-03 0.0000000000000000e+00  7.0558503758706812e-04 -2.0638830822287653e-03 0.0000000000000000e+00  7.5767932779629101e-04 -2.4704283374159912e-03 0.0000000000000000e+00  8.0853265205936109e-04 -2.8834762943171872e-03 0.0000000000000000e+00  8.4692698702604847e-04 -3.3444316996172900e-03 0.0000000000000000e+00  8.9352091843577413e-04 -3.8303345456264198e-03 0.0000000000000000e+00  9.2508773293502593e-04 -4.3393317845624299e-03 0.0000000000000000e+00  9.5662647651518010e-04 -4.8817298685385983e-03 0.0000000000000000e+00  9.8305428454475161e-04 -5.4431765456884789e-03 0.0000000000000000e+00  1.0044723985312271e-03 -6.0369277968861379e-03 0.0000000000000000e+00  1.0196653039659077e-03 -6.6435788090337313e-03 0.0000000000000000e+00  1.0318323410831048e-03 -7.2772854422088239e-03 0.0000000000000000e+00  1.0389297806347707e-03 -7.9294815893653035e-03 0.0000000000000000e+00  1.0406741167962776e-03 -8.5997017334056656e-03 0.0000000000000000e+00  1.0426920733876373e-03 -9.2989142671286266e-03 0.0000000000000000e+00  1.0438994390531068e-03 -1.0002069027073859e-02 0.0000000000000000e+00  1.0378102571187067e-03 -1.0731212905635366e-02 0.0000000000000000e+00  1.0273283178351144e-03 -1.1470707682757290e-02 0.0000000000000000e+00  1.0138599707175632e-03 -1.2229055057829440e-02 0.0000000000000000e+00  9.9655553941832738e-04 -1.3000803015615188e-02 0.0000000000000000e+00  9.7461278336039622e-04 -1.3785079280156322e-02 0.0000000000000000e+00  9.5189140645706534e-04 -1.4589497364071068e-02 0.0000000000000000e+00  9.2842099658166182e-04 -1.5395761210608270e-02 0.0000000000000000e+00  8.9715907207348880e-04 -1.6219607819562054e-02 0.0000000000000000e+00  8.6446194622215701e-04 -1.7056888283219291e-02 0.0000000000000000e+00  8.3078455982936537e-04 -1.7897250905683480e-02 0.0000000000000000e+00  7.9066297386942892e-04 -1.8752594378233532e-02 0.0000000000000000e+00  7.5157309872042437e-04 -1.9615207589713114e-02 0.0000000000000000e+00  7.0656031286283531e-04 -2.0486351595115956e-02 0.0000000000000000e+00  6.6162863709184178e-04 -2.1367181605306373e-02 0.0000000000000000e+00  6.1209776975170078e-04 -2.2253425114101381e-02 0.0000000000000000e+00  5.5986890185886259e-04 -2.3147834579000819e-02 0.0000000000000000e+00  5.0641636592035791e-04 -2.4047889276516028e-02 0.0000000000000000e+00  4.5093140969639010e-04 -2.4954327446894520e-02 0.0000000000000000e+00  3.9204190740436056e-04 -2.5866282903382453e-02 0.0000000000000000e+00  3.3215431954865753e-04 -2.6782703491784427e-02 0.0000000000000000e+00  2.7033332302937591e-04 -2.7704236536386814e-02 0.0000000000000000e+00  2.0574092000857479e-04 -2.8629959526167988e-02 0.0000000000000000e+00  1.4000075134568959e-04 -2.9558958849635140e-02 0.0000000000000000e+00  7.2625784070849334e-05 -3.0491720827109763e-02 0.0000000000000000e+00  3.1681104251659048e-06 -3.1427202288129431e-02 0.0000000000000000e+00  -6.7275394590629074e-05 -3.2364909271664015e-02 0.0000000000000000e+00  -1.3902737226442969e-04 -3.3305120123135669e-02 0.0000000000000000e+00  -2.1232764852228606e-04 -3.4247075572748212e-02 0.0000000000000000e+00  -2.8642283663457747e-04 -3.5190362476392130e-02 0.0000000000000000e+00  -3.6153957645590750e-04 -3.6135159223492412e-02 0.0000000000000000e+00  -4.3773059982437116e-04 -3.7080891605375157e-02 0.0000000000000000e+00  -5.1447456164956129e-04 -3.8027343499150733e-02 0.0000000000000000e+00  -5.9195331842125051e-04 -3.8974525044667849e-02 0.0000000000000000e+00  -6.7011881288957448e-04 -3.9922093271311986e-02 0.0000000000000000e+00  -7.4879802017270320e-04 -4.0869914592408581e-02 0.0000000000000000e+00  -8.2794574356087993e-04 -4.1817933370273730e-02 0.0000000000000000e+00  -9.0742866916821634e-04 -4.2766041129025510e-02 0.0000000000000000e+00  -9.8705530109735378e-04 -4.3714112864782127e-02 0.0000000000000000e+00  -1.0670145941773252e-03 -4.4662208651654579e-02 0.0000000000000000e+00  -1.1471181737295018e-03 -4.5610239010380943e-02 0.0000000000000000e+00  -1.2273231724850894e-03 -4.6558177622040002e-02 0.0000000000000000e+00  -1.3076584423379024e-03 -4.7506017031268388e-02 0.0000000000000000e+00  -1.3880178065142038e-03 -4.8453823901828869e-02 0.0000000000000000e+00  -1.4684123545242718e-03 -4.9401548126987625e-02 0.0000000000000000e+00  -1.5488392754505651e-03 -5.0349246454129783e-02 0.0000000000000000e+00  -1.6292615552695189e-03 -5.1296944317984421e-02 0.0000000000000000e+00  -5.4634429380571647e-03 -5.0971516683654988e-02 0.0000000000000000e+00  -5.3831072114930599e-03 -5.0023752179189918e-02 0.0000000000000000e+00  -5.3027807193632721e-03 -4.9076002566577348e-02 0.0000000000000000e+00  -5.2225049726557374e-03 -4.8128234499438295e-02 0.0000000000000000e+00  -5.1422761712416375e-03 -4.7180439029692628e-02 0.0000000000000000e+00  -5.0620586218620900e-03 -4.6232628950246275e-02 0.0000000000000000e+00  -4.9818783974482101e-03 -4.5284788360865552e-02 0.0000000000000000e+00  -4.9017149742411718e-03 -4.4336948662282182e-02 0.0000000000000000e+00  -4.8215489075014648e-03 -4.3389086426123172e-02 0.0000000000000000e+00  -4.7413876242505520e-03 -4.2441326354639194e-02 0.0000000000000000e+00  -4.6611685371574013e-03 -4.1493639440871435e-02 0.0000000000000000e+00  -4.5809863393954046e-03 -4.0546170525721917e-02 0.0000000000000000e+00  -4.5007332665381438e-03 -3.9599139418118302e-02 0.0000000000000000e+00  -4.4202990892891680e-03 -3.8652258162597333e-02 0.0000000000000000e+00  -4.3399608288538331e-03 -3.7706101948039555e-02 0.0000000000000000e+00  -4.2594446212301578e-03 -3.6761082635151023e-02 0.0000000000000000e+00  -4.1786509612798169e-03 -3.5816412938943901e-02 0.0000000000000000e+00  -4.0981768405825188e-03 -3.4873300019344342e-02 0.0000000000000000e+00  -4.0173943804922120e-03 -3.3932242913178881e-02 0.0000000000000000e+00  -3.9362097219634183e-03 -3.2991792895424525e-02 0.0000000000000000e+00  -3.8556658105646361e-03 -3.2054069421731009e-02 0.0000000000000000e+00  -3.7747029550532275e-03 -3.1119634282692342e-02 0.0000000000000000e+00  -3.6932183639259634e-03 -3.0186127631563722e-02 0.0000000000000000e+00  -3.6128354973118362e-03 -2.9256804957790743e-02 0.0000000000000000e+00  -3.5319081494640187e-03 -2.8332343553040623e-02 0.0000000000000000e+00  -3.4505040670555483e-03 -2.7409742130170504e-02 0.0000000000000000e+00  -3.3700210926165858e-03 -2.6492156576872490e-02 0.0000000000000000e+00  -3.2892463100352800e-03 -2.5581515233520268e-02 0.0000000000000000e+00  -3.2082402682842162e-03 -2.4672148275350903e-02 0.0000000000000000e+00  -3.1298087760197697e-03 -2.3770467248339540e-02 0.0000000000000000e+00  -3.0498950678514805e-03 -2.2878052955298826e-02 0.0000000000000000e+00  -2.9692506897073664e-03 -2.1987879774445437e-02 0.0000000000000000e+00  -2.8904892573536627e-03 -2.1107719475882782e-02 0.0000000000000000e+00  -2.8127943369976654e-03 -2.0232841463572102e-02 0.0000000000000000e+00  -2.7353905009407393e-03 -1.9366747068773546e-02 0.0000000000000000e+00  -2.6596059298479077e-03 -1.8511819737990414e-02 0.0000000000000000e+00  -2.5816504679341771e-03 -1.7663063602918094e-02 0.0000000000000000e+00  -2.5060337868602106e-03 -1.6825863301303791e-02 0.0000000000000000e+00  -2.4291108139282802e-03 -1.5998581813985158e-02 0.0000000000000000e+00  -2.3517936250561887e-03 -1.5183099466608020e-02 0.0000000000000000e+00  -2.2757377108552483e-03 -1.4380385531453490e-02 0.0000000000000000e+00  -2.2026672328413436e-03 -1.3587314390198668e-02 0.0000000000000000e+00  -2.1305863891603639e-03 -1.2809034344941080e-02 0.0000000000000000e+00  -2.0524178328900199e-03 -1.2041685438821986e-02 0.0000000000000000e+00  -1.9802363294047997e-03 -1.1291475370902167e-02 0.0000000000000000e+00  -1.9023991171484233e-03 -1.0558690593601159e-02 0.0000000000000000e+00  -1.8299635476074290e-03 -9.8389051371622991e-03 0.0000000000000000e+00  -1.7556555145120205e-03 -9.1403740351178667e-03 0.0000000000000000e+00  -1.6845696185071053e-03 -8.4549336709884067e-03 0.0000000000000000e+00  -1.6144427104184508e-03 -7.7909684653648167e-03 0.0000000000000000e+00  -1.5354493836613027e-03 -7.1421712497259909e-03 0.0000000000000000e+00  -1.4646266898960126e-03 -6.5166948314187324e-03 0.0000000000000000e+00  -1.3848949189642229e-03 -5.9161424807702648e-03 0.0000000000000000e+00  -1.3153297674022195e-03 -5.3355434109050364e-03 0.0000000000000000e+00  -1.2425027078708383e-03 -4.7886931611014136e-03 0.0000000000000000e+00  -1.1666562276991615e-03 -4.2497190587977973e-03 0.0000000000000000e+00  -1.0955282179941853e-03 -3.7481183420926974e-03 0.0000000000000000e+00  -1.0120605729513096e-03 -3.2714532291226966e-03 0.0000000000000000e+00  -9.4043300562947232e-04 -2.8208003824649122e-03 0.0000000000000000e+00  -8.6540576455390887e-04 -2.4079434242948524e-03 0.0000000000000000e+00  -7.9341820851783586e-04 -2.0166081824139429e-03 0.0000000000000000e+00  -7.2233204549203636e-04 -1.6624931855122602e-03 0.0000000000000000e+00  -6.3952196090036578e-04 -1.3336699136951272e-03 0.0000000000000000e+00  -5.6971212265263566e-04 -1.0405116902529566e-03 0.0000000000000000e+00  -4.8554452801530154e-04 -7.8177897605816507e-04 0.0000000000000000e+00  -4.1097994406831127e-04 -5.6592687688660913e-04 0.0000000000000000e+00  -3.2375697856335689e-04 -3.8620631491855851e-04 0.0000000000000000e+00  -2.4387708486963889e-04 -2.3461970002632571e-04 0.0000000000000000e+00  -1.6381970484620256e-04 -1.2773887214575250e-04 0.0000000000000000e+00  -8.1731868321120323e-05 -7.1886648407077646e-05 0.0000000000000000e+00  -4.5852634977309572e-03 -5.2000627994339632e-02 0.0000000000000000e+00  -2.6681968533546403e-03 -5.2163301590937808e-02 0.0000000000000000e+00  1.0045973896584852e-05 -7.1843568778611893e-05 0.0000000000000000e+00  -2.7045804043642472e-03 -4.1181507986024900e-02 0.0000000000000000e+00  -3.1162564873486753e-03 -4.5992799897558161e-02 0.0000000000000000e+00  2.6450363453412944e-05 -6.8557299671403191e-04 0.0000000000000000e+00  -2.2550913886842301e-03 -3.5570236815391114e-02 0.0000000000000000e+00  -2.4908890695778570e-03 -3.8407594889993013e-02 0.0000000000000000e+00  -7.8377203604981926e-05 -1.7042487199451196e-03 0.0000000000000000e+00  -3.4343265126393968e-03 -4.8773087575250305e-02 0.0000000000000000e+00  -7.0705643657471677e-05 -3.0019611117893851e-03 0.0000000000000000e+00  -8.9376720671158417e-05 -5.8295187060705220e-03 0.0000000000000000e+00  -2.0229705310128043e-03 -3.2743790755578192e-02 0.0000000000000000e+00  -2.9943014835821563e-04 -8.1671302353322119e-03 0.0000000000000000e+00  -1.7961597575146442e-03 -2.9936107300961693e-02 0.0000000000000000e+00  -4.1461032539412602e-04 -1.0346182130277907e-02 0.0000000000000000e+00  -5.8582201161731470e-04 -1.3277301414754231e-02 0.0000000000000000e+00  -1.6380053118632805e-03 -2.7082713948236154e-02 0.0000000000000000e+00  -1.3434287529496269e-03 -2.4353351138268219e-02 0.0000000000000000e+00  -7.1599542234883709e-04 -1.5622221435212198e-02 0.0000000000000000e+00  -9.0151143200812396e-04 -1.8191051382658249e-02 0.0000000000000000e+00  -1.1394956613502414e-03 -2.1554862323564919e-02 0.0000000000000000e+00  -1.0317105663106131e-04 -3.9548462334314926e-03 0.0000000000000000e+00  -2.9528393573157300e-03 -4.4107377482728027e-02 0.0000000000000000e+00  -1.0290668358639878e-03 -1.9670161400639062e-02 0.0000000000000000e+00  -2.2602337935091337e-04 -7.0404351592583238e-03 0.0000000000000000e+00  -4.8484574712365604e-04 -1.1947705461832554e-02 0.0000000000000000e+00  -1.7216429241627640e-05 -1.1624338932943927e-03 0.0000000000000000e+00  -3.8188168128881774e-03 -5.0351558184327343e-02 0.0000000000000000e+00  4.7589621678170546e-05 -3.0764869033563967e-04 0.0000000000000000e+00  -1.0330269265504163e-03 -2.5748439728897461e-02 0.0000000000000000e+00  -1.4600325312162476e-03 -3.1304171423010674e-02 0.0000000000000000e+00  -1.6863180320308971e-03 -3.4122583083581765e-02 0.0000000000000000e+00  -1.0222426223622863e-03 -1.4443671806883033e-02 0.0000000000000000e+00  -1.2414631624079197e-03 -2.8509103420406291e-02 0.0000000000000000e+00  -1.9183400351642063e-03 -3.6955543536907609e-02 0.0000000000000000e+00  -8.3744742343977213e-04 -2.3033963361494981e-02 0.0000000000000000e+00  -2.1543443021208078e-03 -3.9796296919882485e-02 0.0000000000000000e+00  -1.1957725611580943e-03 -1.6901347273940985e-02 0.0000000000000000e+00  -6.6864388841433506e-04 -9.1759934768528562e-03 0.0000000000000000e+00  -2.3022908966863524e-04 -2.3897560293538143e-03 0.0000000000000000e+00  -3.6563619476185786e-03 -4.7306626780865009e-02 0.0000000000000000e+00  -3.3730022105064612e-03 -4.2537301159752017e-02 0.0000000000000000e+00  1.7265717505354110e-04 -4.8243645490179572e-03 0.0000000000000000e+00  -2.0536033654776778e-03 -4.2254687446791242e-02 0.0000000000000000e+00  -5.7974269360953120e-04 -5.0246171576156977e-03 0.0000000000000000e+00  -3.3625562905996750e-03 -4.0117271695038259e-02 0.0000000000000000e+00  -3.1234422288039265e-03 -3.7276762195792484e-02 0.0000000000000000e+00  -2.8858111293250952e-03 -3.4443762287997427e-02 0.0000000000000000e+00  -2.5175842507700421e-03 -4.7826284254862059e-02 0.0000000000000000e+00  2.6363981631797180e-04 -2.2313831281140007e-03 0.0000000000000000e+00  -2.4188246226546201e-03 -2.8828761361676669e-02 0.0000000000000000e+00  -2.6505184696239896e-03 -3.1624846425096907e-02 0.0000000000000000e+00  -1.5761839125102662e-05 -1.4153739549590800e-02 0.0000000000000000e+00  1.9962509578456917e-04 -8.9180295820946807e-03 0.0000000000000000e+00  -2.1279773481253728e-03 -2.5258216980398596e-02 0.0000000000000000e+00  -1.9724891739320762e-03 -2.3348611548083889e-02 0.0000000000000000e+00  -1.4321645776515233e-04 -1.6601964288637576e-02 0.0000000000000000e+00  -3.5193118160798291e-05 -3.1357845270272848e-05 0.0000000000000000e+00  2.7283044869019642e-05 -2.4504818267935026e-05 0.0000000000000000e+00  -4.2081391526677808e-04 -2.0910533105093634e-02 0.0000000000000000e+00  -1.0100722793149732e-03 -1.0894986751266810e-02 0.0000000000000000e+00  -6.8937908403907545e-04 -6.2465643083326923e-03 0.0000000000000000e+00  -2.1556680163626224e-04 -8.8509676086529702e-04 0.0000000000000000e+00  -2.7610713347286020e-04 -1.4834324480005369e-03 0.0000000000000000e+00  -2.7787335485538595e-04 -1.9129824632203998e-02 0.0000000000000000e+00  -7.7799291148589341e-04 -7.4573152831795709e-03 0.0000000000000000e+00  -1.1484973089457369e-03 -1.2436408949768109e-02 0.0000000000000000e+00  -4.6182447759300193e-04 -3.5840817659161832e-03 0.0000000000000000e+00  -2.2868629505339313e-03 -4.4888055836365355e-02 0.0000000000000000e+00  -3.7688712137807084e-03 -4.4817644248161530e-02 0.0000000000000000e+00  2.8138601157510823e-04 -3.5753108039021635e-03 0.0000000000000000e+00  -1.5543099440159857e-04 -4.2589424138420420e-04 0.0000000000000000e+00  -2.5148065504207546e-03 -4.9724513173210819e-02 0.0000000000000000e+00  -1.8877237527398175e-03 -2.0781088242633323e-02 0.0000000000000000e+00  -1.6725421496866385e-03 -1.8970604764866894e-02 0.0000000000000000e+00  3.7757392210352724e-04 -6.2567862600726738e-03 0.0000000000000000e+00  2.3177651329736040e-04 -8.7654474432613799e-04 0.0000000000000000e+00  2.9028446488721285e-04 -1.5135299210224447e-03 0.0000000000000000e+00  2.2215075335177160e-04 -1.0989424624459183e-02 0.0000000000000000e+00  4.0691343160255579e-04 -7.4945576333662386e-03 0.0000000000000000e+00  2.6189348527760718e-04 -1.2489611290320859e-02 0.0000000000000000e+00  -9.8267666097112729e-05 -2.2396544956623576e-04 0.0000000000000000e+00  -2.7596241884779325e-03 -5.1059772685516834e-02 0.0000000000000000e+00  -3.3606803178865994e-03 -3.8993662942895281e-02 0.0000000000000000e+00  -3.1219549658389155e-03 -3.6155612179672565e-02 0.0000000000000000e+00  3.1151789104167890e-04 -2.7217707976525990e-03 0.0000000000000000e+00  -2.8848288329984752e-03 -3.3327454928671250e-02 0.0000000000000000e+00  -2.3327189773167094e-03 -4.6719834692062576e-02 0.0000000000000000e+00  -2.6502625119996198e-03 -3.0516631360700153e-02 0.0000000000000000e+00  -2.4209538222083131e-03 -2.7740655969728273e-02 0.0000000000000000e+00  2.3853558676889325e-04 -9.7484404294605025e-03 0.0000000000000000e+00  -2.3033376766027403e-03 -2.6318313322859097e-02 0.0000000000000000e+00  1.2510170909472496e-05 -1.5107832499627789e-02 0.0000000000000000e+00  -1.9787783793579483e-03 -2.2290619293080391e-02 0.0000000000000000e+00  -1.1842178166363029e-04 -1.7595539957513735e-02 0.0000000000000000e+00  -4.2332409381662479e-03 -4.9424993944996269e-02 0.0000000000000000e+00  -2.0325335282371823e-03 -4.3365469470013733e-02 0.0000000000000000e+00  -5.9304956344173999e-04 -4.3901884179968695e-03 0.0000000000000000e+00  1.8035205022159831e-04 -4.6280322901861556e-04 0.0000000000000000e+00  9.5834801527897810e-05 -1.7917566530787981e-04 0.0000000000000000e+00  -5.2935899876138161e-04 -2.4903071728364482e-02 0.0000000000000000e+00  -1.6347059821684381e-03 -1.7664799596520460e-02 0.0000000000000000e+00  -7.2634597601128935e-04 -2.7651465891102015e-02 0.0000000000000000e+00  -1.4028535739948856e-03 -3.6075738763928694e-02 0.0000000000000000e+00  -9.5446054847417956e-04 -3.0433499726013072e-02 0.0000000000000000e+00  -1.1748179232529050e-03 -3.3246140333323862e-02 0.0000000000000000e+00  -1.3431074416689309e-03 -1.5240209465917882e-02 0.0000000000000000e+00  -3.7842678861224274e-04 -2.2222072556317609e-02 0.0000000000000000e+00  -1.0256758312427810e-03 -9.8286589252786927e-03 0.0000000000000000e+00  -1.3502680449009117e-03 -1.3654032188854442e-02 0.0000000000000000e+00  -1.7706217590773134e-03 -4.0751299518495050e-02 0.0000000000000000e+00  -9.5152179134701460e-04 -8.4980519182397910e-03 0.0000000000000000e+00  -1.7671998807608465e-03 -3.8868401756104433e-02 0.0000000000000000e+00  -4.4806517006109356e-04 -2.7803306682934663e-03 0.0000000000000000e+00  -3.8786336756100980e-04 -2.0086854664861315e-03 0.0000000000000000e+00  -4.1505372235724428e-03 -4.8112483829363582e-02 0.0000000000000000e+00  -4.0395758244887881e-03 -4.6351358672799312e-02 0.0000000000000000e+00  -1.5163305956960398e-03 -3.5131165856033972e-02 0.0000000000000000e+00  -1.2893123076761913e-03 -3.2306383479593623e-02 0.0000000000000000e+00  -8.1052453654647638e-04 -2.6697698572609906e-02 0.0000000000000000e+00  -1.7014546376108255e-03 -3.7943008925964007e-02 0.0000000000000000e+00  -1.0701096156768904e-03 -2.9501532317590524e-02 0.0000000000000000e+00  -6.0034466001561339e-04 -2.3968459184214745e-02 0.0000000000000000e+00  -1.3931686090099752e-03 -1.6039599417318307e-02 0.0000000000000000e+00  3.7176305070286432e-04 -4.3244427243621427e-03 0.0000000000000000e+00  -3.7998074660632883e-03 -4.3410393444369082e-02 0.0000000000000000e+00  -3.6199612111567311e-03 -4.1611878909888926e-02 0.0000000000000000e+00  3.5996139777309062e-04 -5.377066093