<?xml version="1.0"?>
<VTKFile type="UnstructuredGrid"  version="0.1"  >
<UnstructuredGrid>
<Piece  NumberOfPoints="439" NumberOfCells="725">
<Points>
<DataArray  type="Float64"  NumberOfComponents="3"  format="ascii">0.5962667899697732 0.1554543211943777 0  0.5988448309324439 0.1753457930527379 0  0.2489897949 0.21 0  0.2489897949 0.19 0  0.5975554240898175 0.165400149574894 0  0.2496355385699469 0.2060260530378829 0  0.249959460510575 0.2020130349814059 0  0.2499594605105767 0.1979869650186357 0  0.24963553856995 0.1939739469621422 0  0.2540005319520831 0.2099406225461345 0  0.2590141456001172 0.2098704810610701 0  0.2640246985644024 0.2097811349372107 0  0.2690276356995943 0.2096391983387496 0  0.2740230982487095 0.2094714410134486 0  0.2790170342889025 0.2092667640172056 0  0.2840015027289491 0.2090456275362713 0  0.2889765117288734 0.2087949262988404 0  0.2939474935533289 0.2085229165426943 0  0.2989111424985635 0.2082314474209256 0  0.3038715076826969 0.2079161097583025 0  0.3088289222709444 0.2075980268160021 0  0.3137753217479227 0.2072567488159512 0  0.3187221099172677 0.2069057206707102 0  0.3236597598880551 0.2065463382519001 0  0.3285946255298219 0.2061758124140566 0  0.3335260905180009 0.2057992439848372 0  0.3384543164995654 0.2054126284989621 0  0.3433802927360551 0.2050236387383038 0  0.3483059592003686 0.2046267999244386 0  0.3532311043996522 0.2042253642794629 0  0.3581562929506238 0.2038185573174521 0  0.3630848748080454 0.2034030078539273 0  0.368014509756408 0.2029854183538885 0  0.3729443042621423 0.2025561361551904 0  0.3778744924824794 0.2021195716573026 0  0.382806394682261 0.2016700106763272 0  0.3877393218986733 0.2012089562046071 0  0.3926722567071103 0.2007346248552669 0  0.3976114694969356 0.2002387090172039 0  0.402551327879565 0.1997401376164905 0  0.4074898507956656 0.1992190824325435 0  0.4124312489002824 0.1986809070644519 0  0.417372215405787 0.198137481695004 0  0.42231009518361 0.1975731411904252 0  0.4272489012275011 0.1969967525819518 0  0.4321811498411904 0.1964070047972153 0  0.4371118608593941 0.195799828924966 0  0.4420349138425994 0.1951837572969862 0  0.4469511877457502 0.1945523742497107 0  0.4518630474915991 0.1939106971025765 0  0.4567679662108881 0.1932584566899435 0  0.4616648993612882 0.1925997185589771 0  0.4665578069247098 0.1919375010568055 0  0.4714448516382802 0.1912724574047614 0  0.4763272994928806 0.1906099688982608 0  0.4812079025210984 0.1899521075214914 0  0.4860861647163764 0.1892996555285187 0  0.4909634034576302 0.1886563299470231 0  0.4958411183419195 0.1880228379935983 0  0.5007191865661731 0.187398774092184 0  0.5055984365246994 0.1867847955802663 0  0.5104786120436331 0.1861805929613181 0  0.5153603516299342 0.1855852723806621 0  0.5202452254247663 0.1849972439565874 0  0.5251317864556899 0.184415512222309 0  0.5300218794151385 0.1838381308164884 0  0.5349166471362565 0.1832623136757082 0  0.5398173490535095 0.1826849387366593 0  0.5447237909283135 0.182106405835483 0  0.5496333050932666 0.1815245499541521 0  0.554545522605619 0.1809355381501929 0  0.5594669901045011 0.1803401726308589 0  0.5643899612580926 0.1797354156988971 0  0.5693141160701414 0.1791229587862929 0  0.5742396035073064 0.1785032501126493 0  0.5791643282938798 0.1778781820002823 0  0.5840876548135898 0.177248817391202 0  0.5890087690914698 0.1766152068938891 0  0.593927785406474 0.1759812084833421 0  0.5913480641351931 0.1560919130300316 0  0.5864288124327913 0.1567292655837863 0  0.5815090057519298 0.1573665575230014 0  0.5765940638610217 0.1580029212934475 0  0.5716828467151279 0.1586366570237248 0  0.5667774552736595 0.1592652125468511 0  0.5618781161815758 0.159886916757051 0  0.556983932827662 0.1605027224283336 0  0.5520939550341395 0.1611067159455989 0  0.5472064717586272 0.1617036338204461 0  0.5423199519561815 0.1622902556861163 0  0.5374337603657976 0.1628721738170071 0  0.5325424984564128 0.1634525137114045 0  0.5276489969767467 0.1640257194125776 0  0.5227544175483502 0.1646033110424924 0  0.5178529810261149 0.1651880770528309 0  0.5129479470666459 0.1657709764422685 0  0.5080430599955256 0.1663685509350022 0  0.5031344953356901 0.1669784904829098 0  0.4982243529623335 0.1675914347824632 0  0.493318185324215 0.1682227398735951 0  0.4884144143756644 0.1688644509463959 0  0.4835134646295637 0.169511156247054 0  0.4786188802585751 0.1701697496460904 0  0.4737304082087034 0.1708287990581905 0  0.4688479470001412 0.171489654109586 0  0.4639687055518709 0.1721513028504655 0  0.4590939628896881 0.172801279871701 0  0.4542236416202961 0.1734514195971392 0  0.4493480651187491 0.1740889397034056 0  0.4444719079698408 0.1747089924604372 0  0.4395986321350545 0.1753248889266862 0  0.4347165806071022 0.1759242759861813 0  0.4298310775352862 0.1765157669682348 0  0.4249415492797256 0.1770954126681813 0  0.4200487904416593 0.177661570195369 0  0.4151579577162607 0.1782206146316649 0  0.4102663997016503 0.1787654030171557 0  0.4053783624900705 0.1792990764103325 0  0.4004928239192466 0.1798187248132666 0  0.3956082434960372 0.1803228770059697 0  0.3907219007591017 0.180813918457345 0  0.3858353783509933 0.1812875141887746 0  0.3809520903109972 0.1817501257261328 0  0.3760617545869821 0.1821970366406881 0  0.3711715713038174 0.1826324040205745 0  0.3662750860508395 0.1830601250247568 0  0.3613776314438105 0.1834799308872462 0  0.3564773295751548 0.1838947387030307 0  0.3515771097187356 0.1843030432217595 0  0.3466803073898894 0.1847072909569919 0  0.3417822618528721 0.1851037636451437 0  0.3368876102081824 0.1854918777584597 0  0.3319901137563187 0.1858724877370782 0  0.3270932158235946 0.1862417072765484 0  0.322197534876943 0.186607792570498 0  0.3173000631106848 0.1869614731667759 0  0.3124090325267189 0.1873051509918827 0  0.3075142685459017 0.18763864118274 0  0.3026226551532877 0.1879534113699049 0  0.2977316277239271 0.1882572430641561 0  0.2928413874606908 0.1885400073095961 0  0.2879602278021294 0.1888079636136914 0  0.2830725281623011 0.1890521897287339 0  0.2781978614436462 0.1892742050842155 0  0.2733189608202994 0.1894632140167417 0  0.2684531930619355 0.1896246324946076 0  0.2635832472135338 0.1897628306428692 0  0.2587154831262551 0.1898634435381867 0  0.2538517027919797 0.1899224957057766 0  0.5969112588941017 0.1604277031019158 0  0.5982000580308983 0.1703729598081208 0  0.2589714341815046 0.200475809860093 0  0.5410675681744389 0.1724594591404101 0  0.5659543319220124 0.169406670879968 0  0.2774366043392031 0.200156303617541 0  0.5120572055145759 0.1758139351714331 0  0.5267353381812413 0.1740537522433302 0  0.2943847932984258 0.1977947932900258 0  0.5803597823342146 0.1671526672476915 0  0.310260997683614 0.1974664713401844 0  0.3367637493923305 0.1963665877969405 0  0.4973794648188075 0.1776529821508938 0  0.3548605985476466 0.1940699929503852 0  0.4827130063208651 0.1795874446642604 0  0.3702213361001793 0.1927838174995632 0  0.3892411411805488 0.1910313111963347 0  0.4676519988573566 0.1812737231558572 0  0.4530600776216307 0.18369650778894 0  0.4036200861038047 0.1896781596866581 0  0.4187231197494497 0.18792075347182 0  0.4377518828561284 0.1856456293009823 0  0.3200492756282609 0.1968118763836334 0  0.5561908762301604 0.1706323950482863 0  0.4271743560628537 0.1867867715438523 0  0.3464115704614641 0.1949159076303437 0  0.3807984227130576 0.1919783462496607 0  0.2860045293241332 0.1989947415935648 0  0.5884970710701246 0.1647957047654692 0  0.2680068113565812 0.201377920388549 0  0.4606768685041946 0.1849453012717525 0  0.4899797378117195 0.1809817847779169 0  0.5046443105633914 0.1790945038576368 0  0.3963797515675123 0.1880618524243476 0  0.4753272691087657 0.1829520873577639 0  0.5193152875372474 0.1772987058613449 0  0.4459980463431612 0.1868843505176253 0  0.5339930494860385 0.1755583569471382 0  0.4111040360415347 0.1865035957455335 0  0.3620371046440359 0.1912100232758989 0  0.3031132213832725 0.1957117058450424 0  0.5726710189692131 0.1663210710095991 0  0.5479654005179516 0.1687518525681838 0  0.3281624001766612 0.1990759596180917 0  0.5467542517110706 0.1756489118163818 0  0.3296877203397174 0.1922308613497236 0  0.535433714761418 0.1692359252175393 0  0.5207510759927515 0.1709718271127965 0  0.5060596397137114 0.1727572238922675 0  0.575634473256958 0.1721309087829686 0  0.3013062306898611 0.2019636154874591 0  0.4767000075437758 0.1766002112234583 0  0.4913689517747646 0.1746353048516949 0  0.3948156994138707 0.194378534243813 0  0.3603831038671476 0.1974957264214529 0  0.4577298576471002 0.1791716730674351 0  0.4474099187508448 0.1805278964453308 0  0.4095858275820244 0.1928397759821886 0  0.2557477257879929 0.1960468199598964 0  0.2550336111057609 0.2034162610971564 0  0.4343299513706434 0.1898830570227323 0  0.3737551790476704 0.1886677569654563 0  0.3399880495000213 0.1913162466671834 0  0.281076532326501 0.1952324213936195 0  0.2909870574829845 0.1947646599419783 0  0.4242654018748536 0.19126309909328 0  0.3494504489170446 0.1905518229953762 0  0.3837869371909193 0.1875761907219843 0  0.3161840772296473 0.1932289963082754 0  0.5603858107827008 0.1739416020139342 0  0.5597095602767426 0.1662618364550029 0  0.3163289470043065 0.2009452683499389 0  0.2709257870065985 0.1955603302560115 0  0.5855302581120014 0.1717252850922198 0  0.4332103310562555 0.1816377051466598 0  0.4230057308196339 0.1832650478275788 0  0.3403121124361314 0.2000575152065299 0  0.2810209938340883 0.203975496687322 0  0.2915828683517573 0.2034462551870772 0  0.3746348308714269 0.1969326971088288 0  0.3499585188729185 0.1996612759950362 0  0.3844040861737106 0.1966866501745245 0  0.2647081775914333 0.1959848614746321 0  0.5924316541393294 0.1701488410637497 0  0.5296127127953625 0.1694418844866633 0  0.5149271300622938 0.1711898250741973 0  0.3071360230061281 0.2020583582920921 0  0.5002315748702605 0.1730077480127785 0  0.5699112682623887 0.173329267347973 0  0.4855443755238551 0.1749232698468767 0  0.4709270009243025 0.1768971754630109 0  0.3662186907977095 0.19749499
[...]
<PointData  Vectors="d"> 
<DataArray  type="Float64"  Name="d"  NumberOfComponents="3" format="ascii">-3.7332100302266149e-03 -3.4545678805622357e-02 0.0000000000000000e+00  -1.1551690675561533e-03 -3.4654206947262130e-02 0.0000000000000000e+00  0.0000000000000000e+00 0.0000000000000000e+00 0.0000000000000000e+00  0.0000000000000000e+00 0.0000000000000000e+00 0.0000000000000000e+00  -2.4445759101826615e-03 -3.4599850425106125e-02 0.0000000000000000e+00  0.0000000000000000e+00 0.0000000000000000e+00 0.0000000000000000e+00  0.0000000000000000e+00 0.0000000000000000e+00 0.0000000000000000e+00  0.0000000000000000e+00 0.0000000000000000e+00 0.0000000000000000e+00  0.0000000000000000e+00 0.0000000000000000e+00 0.0000000000000000e+00  6.6931346453853047e-05 -5.9377453865442480e-05 0.0000000000000000e+00  1.3673928886293811e-04 -1.2951893893000139e-04 0.0000000000000000e+00  2.0348654751033187e-04 -2.1886506278921179e-04 0.0000000000000000e+00  2.6261797706434082e-04 -3.6080166125042508e-04 0.0000000000000000e+00  3.1427482055258906e-04 -5.2855898655141981e-04 0.0000000000000000e+00  3.6440515512704304e-04 -7.3323598279433099e-04 0.0000000000000000e+00  4.0506788955547009e-04 -9.5437246372856053e-04 0.0000000000000000e+00  4.3627118385687142e-04 -1.2050737011596426e-03 0.0000000000000000e+00  4.6344730267668750e-04 -1.4770834573057008e-03 0.0000000000000000e+00  4.8329054229271165e-04 -1.7685525790744117e-03 0.0000000000000000e+00  4.9985002079714258e-04 -2.0838902416975293e-03 0.0000000000000000e+00  5.1345890342630604e-04 -2.4019731839978690e-03 0.0000000000000000e+00  5.1605267478605020e-04 -2.7432511840488963e-03 0.0000000000000000e+00  5.1903513851274689e-04 -3.0942793292898126e-03 0.0000000000000000e+00  5.1287940368190132e-04 -3.4536617480998969e-03 0.0000000000000000e+00  5.0393933983021628e-04 -3.8241875859434294e-03 0.0000000000000000e+00  4.9159862238015131e-04 -4.2007560151627694e-03 0.0000000000000000e+00  4.7601889833680087e-04 -4.5873715010378777e-03 0.0000000000000000e+00  4.5818942919744420e-04 -4.9763612616961651e-03 0.0000000000000000e+00  4.4005018789256093e-04 -5.3732000755613782e-03 0.0000000000000000e+00  4.2138968155766213e-04 -5.7746357205371275e-03 0.0000000000000000e+00  4.0277252691119905e-04 -6.1814426825479414e-03 0.0000000000000000e+00  3.8754867871438871e-04 -6.5969921460725884e-03 0.0000000000000000e+00  3.7337792145847407e-04 -7.0145816461115122e-03 0.0000000000000000e+00  3.5936672156352368e-04 -7.4438638448095073e-03 0.0000000000000000e+00  3.4574923629171066e-04 -7.8804283426974053e-03 0.0000000000000000e+00  3.3384573044882939e-04 -8.3299893236728588e-03 0.0000000000000000e+00  3.2296724123954669e-04 -8.7910437953928559e-03 0.0000000000000000e+00  3.1209634404707923e-04 -9.2653751447331362e-03 0.0000000000000000e+00  3.0750342826510387e-04 -9.7612909827960639e-03 0.0000000000000000e+00  3.0355610526656057e-04 -1.0259862383509641e-02 0.0000000000000000e+00  2.9827331575484208e-04 -1.0780917567456416e-02 0.0000000000000000e+00  2.9586571475139525e-04 -1.1319092935548138e-02 0.0000000000000000e+00  2.9302651463510861e-04 -1.1862518304995972e-02 0.0000000000000000e+00  2.8710058684643677e-04 -1.2426858809574864e-02 0.0000000000000000e+00  2.8210092510915456e-04 -1.3003247418048196e-02 0.0000000000000000e+00  2.7054383316539078e-04 -1.3592995202784678e-02 0.0000000000000000e+00  2.5744914571676345e-04 -1.4200171075034004e-02 0.0000000000000000e+00  2.3669642326656280e-04 -1.4816242703013799e-02 0.0000000000000000e+00  2.0916462075328156e-04 -1.5447625750289217e-02 0.0000000000000000e+00  1.7721866095458112e-04 -1.6089302897423541e-02 0.0000000000000000e+00  1.3833167460155740e-04 -1.6741543310056645e-02 0.0000000000000000e+00  9.1459119372235017e-05 -1.7400281441022902e-02 0.0000000000000000e+00  4.0560977143167925e-05 -1.8062498943194547e-02 0.0000000000000000e+00  -1.6200014919656928e-05 -1.8727542595238515e-02 0.0000000000000000e+00  -7.7557865986203946e-05 -1.9390031101739123e-02 0.0000000000000000e+00  -1.4076054341502389e-04 -2.0047892478508571e-02 0.0000000000000000e+00  -2.0630405379965018e-04 -2.0700344471481273e-02 0.0000000000000000e+00  -2.7287101817636173e-04 -2.1343670052976882e-02 0.0000000000000000e+00  -3.3896183954151165e-04 -2.1977162006401631e-02 0.0000000000000000e+00  -4.0469932091645564e-04 -2.2601225907815967e-02 0.0000000000000000e+00  -4.6925506804979726e-04 -2.3215204419733650e-02 0.0000000000000000e+00  -5.3288525475448344e-04 -2.3819407038681881e-02 0.0000000000000000e+00  -5.9495137406972412e-04 -2.4414727619337964e-02 0.0000000000000000e+00  -6.5388328487514242e-04 -2.5002756043412649e-02 0.0000000000000000e+00  -7.1112795961078264e-04 -2.5584487777690925e-02 0.0000000000000000e+00  -7.6484070580077311e-04 -2.6161869183511634e-02 0.0000000000000000e+00  -8.1387869034198050e-04 -2.6737686324291771e-02 0.0000000000000000e+00  -8.5698247872710912e-04 -2.7315061263340677e-02 0.0000000000000000e+00  -8.9434630953954576e-04 -2.7893594164516991e-02 0.0000000000000000e+00  -9.2863785022415145e-04 -2.8475450045847943e-02 0.0000000000000000e+00  -9.6022604352694572e-04 -2.9064461849807037e-02 0.0000000000000000e+00  -9.8256425028754612e-04 -2.9659827369141172e-02 0.0000000000000000e+00  -1.0033988023558122e-03 -3.0264584301102862e-02 0.0000000000000000e+00  -1.0230496959700898e-03 -3.0877041213707115e-02 0.0000000000000000e+00  -1.0413679644396012e-03 -3.1496749887350760e-02 0.0000000000000000e+00  -1.0604488835039131e-03 -3.2121817999717778e-02 0.0000000000000000e+00  -1.0809280694441920e-03 -3.2751182608798050e-02 0.0000000000000000e+00  -1.1036194972108503e-03 -3.3384793106110908e-02 0.0000000000000000e+00  -1.1284088878665661e-03 -3.4018791516657966e-02 0.0000000000000000e+00  -3.7081301591899859e-03 -3.3908086969968311e-02 0.0000000000000000e+00  -3.6835761559667122e-03 -3.3270734416213726e-02 0.0000000000000000e+00  -3.6595771311895070e-03 -3.2633442476998620e-02 0.0000000000000000e+00  -3.6307133164508770e-03 -3.1997078706552440e-02 0.0000000000000000e+00  -3.5981247567235413e-03 -3.1363342976275278e-02 0.0000000000000000e+00  -3.5597104925718772e-03 -3.0734787453149004e-02 0.0000000000000000e+00  -3.5152438790424035e-03 -3.0113083242949066e-02 0.0000000000000000e+00  -3.4656215273264871e-03 -2.9497277571666373e-02 0.0000000000000000e+00  -3.4117936152184229e-03 -2.8893284054401148e-02 0.0000000000000000e+00  -3.3554711850763697e-03 -2.8296366179553906e-02 0.0000000000000000e+00  -3.2981852819227338e-03 -2.7709744313883598e-02 0.0000000000000000e+00  -3.2405711667072741e-03 -2.7127826182992937e-02 0.0000000000000000e+00  -3.1880273704832434e-03 -2.6547486288595584e-02 0.0000000000000000e+00  -3.1377231445161471e-03 -2.5974280587422429e-02 0.0000000000000000e+00  -3.0884968673125825e-03 -2.5396688957507504e-02 0.0000000000000000e+00  -3.0461276839095909e-03 -2.4811922947169052e-02 0.0000000000000000e+00  -3.0073559377758047e-03 -2.4229023557731513e-02 0.0000000000000000e+00  -2.9684373032969587e-03 -2.3631449064997753e-02 0.0000000000000000e+00  -2.9331962575275400e-03 -2.3021509517090182e-02 0.0000000000000000e+00  -2.8995329252469201e-03 -2.2408565217536803e-02 0.0000000000000000e+00  -2.8618948577570102e-03 -2.1777260126404855e-02 0.0000000000000000e+00  -2.8218601006887267e-03 -2.1135549053604062e-02 0.0000000000000000e+00  -2.7790041411705343e-03 -2.0488843752945910e-02 0.0000000000000000e+00  -2.7297828065294349e-03 -1.9830250353909649e-02 0.0000000000000000e+00  -2.6744491507932409e-03 -1.9171200941809415e-02 0.0000000000000000e+00  -2.6131046537271304e-03 -1.8510345890414073e-02 0.0000000000000000e+00  -2.5485403963845898e-03 -1.7848697149534413e-02 0.0000000000000000e+00  -2.4794773529468951e-03 -1.7198720128298945e-02 0.0000000000000000e+00  -2.4059929167141508e-03 -1.6548580402860780e-02 0.0000000000000000e+00  -2.3377637126316933e-03 -1.5911060296594278e-02 0.0000000000000000e+00  -2.2701151559309171e-03 -1.5291007539562812e-02 0.0000000000000000e+00  -2.1995852850921712e-03 -1.4675111073313860e-02 0.0000000000000000e+00  -2.1378311074275666e-03 -1.4075724013818791e-02 0.0000000000000000e+00  -2.0795284736268983e-03 -1.3484233031765158e-02 0.0000000000000000e+00  -2.0252510235609891e-03 -1.2904587331818656e-02 0.0000000000000000e+00  -1.9742041559889616e-03 -1.2338429804631042e-02 0.0000000000000000e+00  -1.9212311757449982e-03 -1.1779385368335069e-02 0.0000000000000000e+00  -1.8689834847090317e-03 -1.1234596982844415e-02 0.0000000000000000e+00  -1.8132149906291144e-03 -1.0700923589667491e-02 0.0000000000000000e+00  -1.7549478558011287e-03 -1.0181275186733462e-02 0.0000000000000000e+00  -1.6957225733530219e-03 -9.6771229940303734e-03 0.0000000000000000e+00  -1.6382596046530422e-03 -9.1860815426549076e-03 0.0000000000000000e+00  -1.5809763071149732e-03 -8.7124858112254712e-03 0.0000000000000000e+00  -1.5204586414850434e-03 -8.2498742738671641e-03 0.0000000000000000e+00  -1.4669886598437797e-03 -7.8029633593118940e-03 0.0000000000000000e+00  -1.4133662373598450e-03 -7.3675959794254758e-03 0.0000000000000000e+00  -1.3660457846690062e-03 -6.9398749752431549e-03 0.0000000000000000e+00  -1.3196946860510033e-03 -6.5200691127538435e-03 0.0000000000000000e+00  -1.2761908490560279e-03 -6.1052612969692008e-03 0.0000000000000000e+00  -1.2326049998533453e-03 -5.6969567782405419e-03 0.0000000000000000e+00  -1.1856016230415889e-03 -5.2927090430081765e-03 0.0000000000000000e+00  -1.1398414544197539e-03 -4.8962363548562182e-03 0.0000000000000000e+00  -1.0906873934712529e-03 -4.5081222415402763e-03 0.0000000000000000e+00  -1.0443781396964372e-03 -4.1275122629217476e-03 0.0000000000000000e+00  -9.9747036678027269e-04 -3.7582927234515754e-03 0.0000000000000000e+00  -9.4934560777422373e-04 -3.3922074295019318e-03 0.0000000000000000e+00  -9.0301166837420484e-04 -3.0385268332240628e-03 0.0000000000000000e+00  -8.5023654668223386e-04 -2.6948490081174126e-03 0.0000000000000000e+00  -8.0119482185648627e-04 -2.3613588172599811e-03 0.0000000000000000e+00  -7.4900250883181351e-04 -2.0465886300950710e-03 0.0000000000000000e+00  -6.9622423255416164e-04 -1.7427569358439510e-03 0.0000000000000000e+00  -6.4265879015223525e-04 -1.4599926904038604e-03 0.0000000000000000e+00  -5.8001274305801429e-04 -1.1920363863086095e-03 0.0000000000000000e+00  -5.2390667722853961e-04 -9.4781027126614235e-04 0.0000000000000000e+00  -4.5476769022541233e-04 -7.2579491578453293e-04 0.0000000000000000e+00  -3.8986260792496025e-04 -5.3678598325823733e-04 0.0000000000000000e+00  -3.1182466065049670e-04 -3.7536750539252453e-04 0.0000000000000000e+00  -2.3796480341382496e-04 -2.3716935713078091e-04 0.0000000000000000e+00  -1.6192318505396205e-04 -1.3655646181328005e-04 0.0000000000000000e+00  -8.1897813678340342e-05 -7.7504294223378837e-05 0.0000000000000000e+00  -3.0887411058983885e-03 -3.4572296898062516e-02 0.0000000000000000e+00  -1.7999419691019209e-03 -3.4627040191852032e-02 0.0000000000000000e+00  -1.9923501446617807e-06 -7.6579482747325485e-05 0.0000000000000000e+00  -2.0786662108684662e-03 -2.7540540859558958e-02 0.0000000000000000e+00  -2.2854575548036178e-03 -3.0563787700930694e-02 0.0000000000000000e+00  -1.4788372599291328e-05 -6.3788832465170762e-04 0.0000000000000000e+00  -1.7923778623210444e-03 -2.4088407477658752e-02 0.0000000000000000e+00  -1.9456623124967860e-03 -2.5848590405766612e-02 0.0000000000000000e+00  -1.2610190733889357e-04 -1.4963975505127803e-03 0.0000000000000000e+00  -2.4183008042779827e-03 -3.2390312852643467e-02 0.0000000000000000e+00  -1.5184197331148994e-04 -2.5039872407133360e-03 0.0000000000000000e+00  -2.3642614952455675e-04 -4.4628734464562643e-03 0.0000000000000000e+00  -1.6387014412385099e-03 -2.2249360498196445e-02 0.0000000000000000e+00  -4.2101902325791173e-04 -5.9300070496756275e-03 0.0000000000000000e+00  -1.4737428223275545e-03 -2.0314897984824550e-02 0.0000000000000000e+00  -5.1603529037585983e-04 -7.2304201958056794e-03 0.0000000000000000e+00  -6.4711632970080462e-04 -8.9686888037481607e-03 0.0000000000000000e+00  -1.3337561919168058e-03 -1.8267949269812161e-02 0.0000000000000000e+00  -1.0976540625658314e-03 -1.6303492210969675e-02 0.0000000000000000e+00  -7.3340529802839712e-04 -1.0419497664266286e-02 0.0000000000000000e+00  -8.2797199450708090e-04 -1.2079246528285735e-02 0.0000000000000000e+00  -9.5009500832275110e-04 -1.4340133003694898e-02 0.0000000000000000e+00  -1.9799939740929297e-04 -3.1970078310064637e-03 0.0000000000000000e+00  -2.2144778779247172e-03 -2.9358720737071423e-02 0.0000000000000000e+00  -8.9235862585980289e-04 -1.3062133276971838e-02 0.0000000000000000e+00  -3.5442416508327625e-04 -5.2351875490937588e-03 0.0000000000000000e+00  -5.7421185283311124e-04 -8.1727489297912809e-03 0.0000000000000000e+00  -6.3808368076701696e-05 -1.0468029770533444e-03 0.0000000000000000e+00  -2.6253101079950999e-03 -3.3449211169405163e-02 0.0000000000000000e+00  1.7495210718500430e-05 -2.9720525818006959e-04 0.0000000000000000e+00  -8.9657173843320367e-04 -1.7305062057047776e-02 0.0000000000000000e+00  -1.2565366646258140e-03 -2.1268578550892182e-02 0.0000000000000000e+00  -1.4233810298069727e-03 -2.3155859471174992e-02 0.0000000000000000e+00  -9.2421450116531240e-04 -9.6877842468489541e-03 0.0000000000000000e+00  -1.0775882507238813e-03 -1.9298275971041154e-02 0.0000000000000000e+00  -1.5838211727981918e-03 -2.4951657467473562e-02 0.0000000000000000e+00  -7.4397678260441761e-04 -1.5366012811174600e-02 0.0000000000000000e+00  -1.7374763408461696e-03 -2.6692006381681635e-02 0.0000000000000000e+00  -1.0313471439967891e-03 -1.1246040925664270e-02 0.0000000000000000e+00  -6.6022148529928546e-04 -6.5396133952929794e-03 0.0000000000000000e+00  -2.5843627862342714e-04 -2.0379308261444361e-03 0.0000000000000000e+00  -2.6099525026097520e-03 -3.1428565661551215e-02 0.0000000000000000e+00  -2.4944554011045472e-03 -2.8376625905582823e-02 0.0000000000000000e+00  -3.0373038022992278e-05 -3.7955619081489781e-03 0.0000000000000000e+00  -1.6636503386753560e-03 -2.8191409753094594e-02 0.0000000000000000e+00  -5.4700674428142170e-04 -3.9288170808254351e-03 0.0000000000000000e+00  -2.4873704623933593e-03 -2.6889256446871675e-02 0.0000000000000000e+00  -2.3385921142136242e-03 -2.5153354551609216e-02 0.0000000000000000e+00  -2.1986112764107038e-03 -2.3367957772142258e-02 0.0000000000000000e+00  -1.8370576117511905e-03 -3.1743909552620062e-02 0.0000000000000000e+00  1.2513242490643636e-04 -1.9112028481346236e-03 0.0000000000000000e+00  -1.8954092126352965e-03 -1.9524970440945748e-02 0.0000000000000000e+00  -2.0578820985024293e-03 -2.1489876812711358e-02 0.0000000000000000e+00  -2.9770725789227912e-04 -9.4962840917836352e-03 0.0000000000000000e+00  -1.2366286526420593e-04 -6.3790919141422289e-03 0.0000000000000000e+00  -1.6530231986142821e-03 -1.6953508596964175e-02 0.0000000000000000e+00  -1.5226637718355788e-03 -1.5597285219069923e-02 0.0000000000000000e+00  -3.5899620659763455e-04 -1.1035042353410398e-02 0.0000000000000000e+00  -3.8574192204157809e-05 -3.9017065833132703e-05 0.0000000000000000e+00  1.8875074821104107e-05 -2.6381901955081380e-05 0.0000000000000000e+00  -4.7319627582545975e-04 -1.3890700741423141e-02 0.0000000000000000e+00  -8.8102256073953724e-04 -7.5584852703989864e-03 0.0000000000000000e+00  -6.3778708640924294e-04 -4.7305455268055793e-03 0.0000000000000000e+00  -2.2363579248222667e-04 -8.1437080043056159e-04 0.0000000000000000e+00  -2.8158126100475930e-04 -1.3169729229499285e-03 0.0000000000000000e+00  -4.0513170713562814e-04 -1.2690108712674331e-02 0.0000000000000000e+00  -7.1172681586830204e-04 -5.4949691988115659e-03 0.0000000000000000e+00  -9.8187848135012387e-04 -8.4706014722516522e-03 0.0000000000000000e+00  -4.4829130870865881e-04 -2.9304622550945262e-03 0.0000000000000000e+00  -1.7691903226403289e-03 -2.9840047245964892e-02 0.0000000000000000e+00  -2.7318274252343751e-03 -2.9814355906134810e-02 0.0000000000000000e+00  8.9443420993704826e-05 -2.9226873925302039e-03 0.0000000000000000e+00  -1.6292641416364105e-04 -4.0931407657232946e-04 0.0000000000000000e+00  -1.7711795283590227e-03 -3.2997503010862433e-02 0.0000000000000000e+00  -1.4576255880154650e-03 -1.3827440808591510e-02 0.0000000000000000e+00  -1.3239195881647149e-03 -1.2610650266327392e-02 0.0000000000000000e+00  5.6161352778994297e-05 -4.7365348225624207e-03 0.0000000000000000e+00  1.5250115799501598e-04 -7.9874509394359543e-04 0.0000000000000000e+00  1.7516503788502703e-04 -1.3346965200182409e-03 0.0000000000000000e+00  -1.3656173906631628e-04 -7.6021569360265624e-03 0.0000000000000000e+00  3.6869983031883843e-05 -5.5140653235942610e-03 0.0000000000000000e+00  -1.2420265551908675e-04 -8.4886911441114637e-03 0.0000000000000000e+00  -1.0630895407214587e-04 -2.2411282400527384e-04 0.0000000000000000e+00  -1.8931102269598903e-03 -3.3892701295168498e-02 0.0000000000000000e+00  -2.4845482502518566e-03 -2.6202625418423910e-02 0.0000000000000000e+00  -2.3387138664788054e-03 -2.4454684830888116e-02 0.0000000000000000e+00  1.4369744586233276e-04 -2.2884450951630719e-03 0.0000000000000000e+00  -2.2028519416659254e-03 -2.2636761892307840e-02 0.0000000000000000e+00  -1.7490353110461148e-03 -3.1017536039303139e-02 0.0000000000000000e+00  -2.0586341712190074e-03 -2.0721240058206452e-02 0.0000000000000000e+00  -1.8881966053238260e-03 -1.8743071427978496e-02 0.0000000000000000e+00  -1.1148685504438375e-04 -6.8724550810722092e-03 0.0000000000000000e+00  -1.7893736584204140e-03 -1.7716764890617374e-02 0.0000000000000000e+00  -2.7708850447813785e-04 -1.0087905606261532e-02 0.0000000000000000e+00  -1.5215527928571504e-03 -1.4861002776694878e-02 0.0000000000000000e+00  -3.2784778011078953e-04 -1.1677597259108887e-02 0.0000000000000000e+00  -2.9322921609511196e-03 -3.2842023622731788e-02 0.0000000000000000e+00  -1.6355006767288210e-03 -2.8878790528380480e-02 0.0000000000000000e+00  -5.4846269774225861e-04 -3.4981571044003360e-03 0.0000000000000000e+00  1.2678390601166535e-04 -4.3457562397884936e-04 0.0000000000000000e+00  6.7590485565216366e-05 -1.7449579580031767e-04 0.0000000000000000e+00  -5.4014373276698249e-04 -1.6696593209326843e-02 0.0000000000000000e+00  -1.3087387305667194e-03 -1.1752180162066568e-02 0.0000000000000000e+00  -7.0860905005984767e-04 -1.8683254695258333e-02 0.0000000000000000e+00  -1.2539138351530155e-03 -2.4398635776331955e-02 0.0000000000000000e+00  -9.0484025800825014e-04 -2.0664406617534509e-02 0.0000000000000000e+00  -1.0833388292297587e-03 -2.2577985331528640e-02 0.0000000000000000e+00  -1.1282132282868478e-03 -1.0190339030239257e-02 0.0000000000000000e+00  -4.3360687155679701e-04 -1.4795153556660468e-02 0.0000000000000000e+00  -8.8181804876607791e-04 -6.9296045417854878e-03 0.0000000000000000e+00  -1.1193199226585972e-03 -9.2082597913187309e-03 0.0000000000000000e+00  -1.4962034622552657e-03 -2.7267865389486619e-02 0.0000000000000000e+00  -8.2869074059343107e-04 -6.1324902626859719e-03 0.0000000000000000e+00  -1.4965043177404961e-03 -2.6123439188770636e-02 0.0000000000000000e+00  -4.2914022717424301e-04 -2.3363286948766089e-03 0.0000000000000000e+00  -3.7505042749696739e-04 -1.7398942168739908e-03 0.0000000000000000e+00  -2.9166753140589950e-03 -3.1968259175860346e-02 0.0000000000000000e+00  -2.8844741199417255e-03 -3.0808361096089285e-02 0.0000000000000000e+00  -1.3201035022886375e-03 -2.3803805248982280e-02 0.0000000000000000e+00  -1.1510048924659520e-03 -2.1951495772146105e-02 0.0000000000000000e+00  -7.5337375075137513e-04 -1.7992641604289199e-02 0.0000000000000000e+00  -1.4525435114476114e-03 -2.5557990736316261e-02 0.0000000000000000e+00  -9.7197874028585331e-04 -2.0007621956420706e-02 0.0000000000000000e+00  -5.8297112714985873e-04 -1.6027737156249288e-02 0.0000000000000000e+00  -1.1608726672699681e-03 -1.0697200276899481e-02 0.0000000000000000e+00  1.2512798500931226e-04 -3.4516345668473376e-03 0.0000000000000000e+00  -2.7624243009609353e-03 -2.8921246210537668e-02 0.0000000000000000e+00  -2.6502851791849833e-03 -2.7802760029131124e-02 0.0000000000000000e+00  7.6981136387054320e-05