<?xml version="1.0"?>
<VTKFile type="UnstructuredGrid"  version="0.1"  >
<UnstructuredGrid>
<Piece  NumberOfPoints="439" NumberOfCells="725">
<Points>
<DataArray  type="Float64"  NumberOfComponents="3"  format="ascii">0.5958732691878578 0.1468213736706203 0  0.5995133481820649 0.1666821656882329 0  0.2489897949 0.21 0  0.2489897949 0.19 0  0.5976935424469727 0.1567515110857374 0  0.2496355385699469 0.2060260530378829 0  0.249959460510575 0.2020130349814059 0  0.2499594605105767 0.1979869650186357 0  0.24963553856995 0.1939739469621422 0  0.2539962607063696 0.2099442030046485 0  0.2590050310654869 0.2098831012245652 0  0.2640117911672819 0.2098074844107009 0  0.2690137478746126 0.2096869464814637 0  0.2740104892663888 0.2095438880142984 0  0.2790067855239179 0.2093691344491879 0  0.2839955539352562 0.2091790143395031 0  0.2889764856647408 0.208962412626028 0  0.2939542238117165 0.2087262525102358 0  0.2989254444040702 0.208471506684769 0  0.3038925296859942 0.2081928257162483 0  0.3088583494527001 0.2079096334712549 0  0.3138123437860854 0.2076019646412056 0  0.3187696105695954 0.2072796682043208 0  0.3237168480555668 0.2069470333657966 0  0.3286642029230069 0.2065959766135198 0  0.3336095612231771 0.2062348981099441 0  0.3385536637908818 0.2058547066617083 0  0.3434973037770504 0.2054660641556743 0  0.3484436552805402 0.2050586002085879 0  0.3533913256767957 0.2046376667573842 0  0.3583411722497475 0.2042014551629841 0  0.3633043178383006 0.2037400292779643 0  0.3682703197676205 0.2032765247470363 0  0.3732418406435042 0.2027863447283618 0  0.3782159356584384 0.2022817338707287 0  0.383197689263952 0.2017541631412455 0  0.3881833034807252 0.201206263490278 0  0.3931696897823628 0.2006365808391268 0  0.3981630933444901 0.2000326926431304 0  0.4031571292129985 0.1994234405083262 0  0.4081422030290003 0.1987813779737655 0  0.4131229914418971 0.1981156256271122 0  0.418100369500499 0.1974437691910807 0  0.4230617008662748 0.1967485090631711 0  0.428017955829223 0.1960420932304416 0  0.4329584105766276 0.1953256490297364 0  0.4378891824927839 0.1945955110924504 0  0.4428084187637172 0.1938600951129694 0  0.4477147671964519 0.1931142274701024 0  0.4526142808268635 0.192359302304538 0  0.4575047726625394 0.1915951297408897 0  0.4623871652275942 0.1908214659895565 0  0.4672659183264491 0.190039132598917 0  0.4721389508228978 0.1892471205892043 0  0.4770089310078072 0.1884469813787041 0  0.4818774518514631 0.1876395411479041 0  0.4867441328309326 0.1868235988076734 0  0.4916110054125291 0.1860038474602249 0  0.4964800765284927 0.1851787591395067 0  0.5013515151722482 0.1843474059101836 0  0.506225224129874 0.1835126051600462 0  0.5111048067737654 0.1826737648613495 0  0.5159906478811995 0.1818291664824625 0  0.5208806957600951 0.1809774560784206 0  0.5257789541528947 0.1801210560719767 0  0.5306839985308317 0.1792574594717669 0  0.5355938467057764 0.1783860769182973 0  0.5405047634345486 0.1775057610106495 0  0.5454218614983349 0.1766154296456841 0  0.5503454376439997 0.1757207847718359 0  0.5552639570647241 0.1748253060260679 0  0.5601853310079371 0.1739176395362288 0  0.5651045371242577 0.1730124669714685 0  0.5700211188075663 0.1721041248886397 0  0.5749393275529656 0.1711960267588926 0  0.5798536549968309 0.1702901051471289 0  0.5847696906615996 0.1693846591766091 0  0.5896845425454381 0.1684824647700718 0  0.5945995823665466 0.1675816019429192 0  0.5909662965845669 0.1477242291986861 0  0.5860612411126515 0.1486296669534924 0  0.581155917097386 0.149536667419436 0  0.5762536881165716 0.1504398700504361 0  0.5713540341345456 0.1513419152927034 0  0.5664507394213645 0.1522403286785929 0  0.5615491053749458 0.1531355578151199 0  0.55664842175666 0.154030070256295 0  0.5517405522022062 0.1549221005644586 0  0.5468366457027783 0.1558135034881067 0  0.5419274461844718 0.1567057389890411 0  0.5370230593983986 0.1575941852959286 0  0.5321270009272283 0.158484495872545 0  0.5272254093759864 0.1593775873218869 0  0.5223344433292261 0.1602612692381289 0  0.5174547863839299 0.1611431317783627 0  0.5125735860294907 0.1620264817199658 0  0.507705239624768 0.1628962211588544 0  0.5028458059241654 0.1637595644919842 0  0.4979884963275938 0.1646211073210969 0  0.4931415436868066 0.1654680052057164 0  0.4882981968860374 0.1663042568233445 0  0.4834594313561251 0.1671345312309645 0  0.4786240324282559 0.167951631108112 0  0.473786125267803 0.1687545582726483 0  0.468951470506948 0.169547632242096 0  0.4641143154615433 0.1703300940933745 0  0.4592689922872013 0.1710942919347697 0  0.4544250468228033 0.1718521696450353 0  0.449567651526652 0.1725973870352983 0  0.4447011624837443 0.1733245552012058 0  0.4398331820847325 0.1740450578777244 0  0.4349506311415361 0.1747524122890051 0  0.430060396135434 0.1754527982467859 0  0.4251623233273773 0.176142996348214 0  0.4202554443937692 0.176819007319444 0  0.4153483829731797 0.1774883891263124 0  0.4104334622587592 0.1781426979129634 0  0.4055199250751271 0.1787842285071182 0  0.4006070296273427 0.1794115217193669 0  0.3956943379782167 0.1800223223134003 0  0.3907782535756283 0.1806195657474696 0  0.3858642777042647 0.1811966755498294 0  0.3809622373208234 0.1817615264445628 0  0.376057082550667 0.182304050643738 0  0.3711649211836311 0.1828273405454959 0  0.3662708690863505 0.1833343337529462 0  0.36138669708862 0.1838192480106441 0  0.3565021303536179 0.18428812950709 0  0.3516216302474722 0.1847345020518922 0  0.3467510854243321 0.1851664269375279 0  0.3418740916716219 0.1855760189130559 0  0.3370036080056461 0.1859644783747889 0  0.3321233789597309 0.1863380207853266 0  0.327242953682019 0.186689001626405 0  0.3223626580239045 0.1870347972524728 0  0.3174760494275136 0.1873574450341733 0  0.3125934747136236 0.1876647685378316 0  0.3077007264480135 0.1879587171322295 0  0.3028053352580674 0.1882317612766237 0  0.2979058273445736 0.1884940148483443 0  0.2930031872525818 0.1887372471517546 0  0.2881066790296824 0.1889673589481691 0  0.283202595612415 0.1891779915687941 0  0.2783083063189897 0.1893690450603548 0  0.2734099733669098 0.1895328981373606 0  0.2685228931699235 0.1896741029783607 0  0.2636335301274026 0.1897960290621122 0  0.2587484169882903 0.1898856405339719 0  0.253868299704114 0.1899366236498617 0  0.5967835801266426 0.1517857002416495 0  0.598603896064787 0.1617165092418076 0  0.258978591176747 0.2004846700049857 0  0.5411790802958296 0.1671209195717203 0  0.5661169472907288 0.1625348657819601 0  0.2774787884086784 0.2002418142891294 0  0.5121640912641123 0.172209026635414 0  0.5268160884190306 0.1696095794321973 0  0.2944762342880206 0.1979997885287499 0  0.5804947738645957 0.1594472994255241 0  0.3103732214354573 0.1978010999983316 0  0.3368673892057403 0.1968337491048975 0  0.4975741886119711 0.1747515554136571 0  0.354962446839732 0.1944906868960909 0  0.4830248109671861 0.1772331006124054 0  0.3703516199211762 0.1930379683628639 0  0.3895018939978525 0.1909418511031687 0  0.46806043280849 0.1793442992620035 0  0.4535486242056737 0.1821075361499355 0  0.404008950925106 0.1892718989232285 0  0.4192062995970646 0.1871458117117452 0  0.4382705207536759 0.184404463770707 0  0.3201621044507036 0.1972169732228907 0  0.5563406644448886 0.1643507896155354 0  0.4276805721203834 0.1858006920669068 0  0.3465126892578226 0.1953783457892141 0  0.380992529604365 0.1920552428714027 0  0.2860715350222391 0.1991377077399138 0  0.5885532449633998 0.1566294918913011 0  0.2680251213096148 0.2014155644694663 0  0.4611972656679451 0.183183472550195 0  0.4903256722860548 0.1783748365534081 0  0.5049009015355345 0.1758688104877979 0  0.3966542467527179 0.1878044309489091 0  0.4757707047752446 0.1808195697339023 0  0.5195259498988665 0.1733076246912099 0  0.4465670826592323 0.1854553945933733 0  0.5342120766317767 0.1706891943650883 0  0.4114889806185233 0.1859044586245444 0  0.3621220036792637 0.191563997532998 0  0.3032334070150348 0.1959891351139199 0  0.5727206626778828 0.1590413452097597 0  0.5479445297577924 0.1629409263429376 0  0.3282608274723197 0.1995159496963646 0  0.5470966360379325 0.1699916275358074 0  0.3298069132603483 0.1926848150368984 0  0.5353240853288919 0.1642006932720334 0  0.520640689685322 0.1668461037350567 0  0.5060213596278094 0.1694401834550334 0  0.5760006812448141 0.1647187545927268 0  0.3013760643061516 0.2022226685936105 0  0.4769346124499855 0.1744302740305586 0  0.4914620932662424 0.1719720428468193 0  0.395208793324609 0.1941960614924879 0  0.3605275764380886 0.1978705530696425 0  0.4580922176784525 0.1774795885245436 0  0.4478088440006154 0.1790658230150859 0  0.4101112872072905 0.1923102665993374 0  0.2557569735590155 0.1960525433566438 0  0.2550344485360426 0.2034183859352159 0  0.4349491723857702 0.188730017059768 0  0.3738428390229846 0.1888511421348503 0  0.3400890837652796 0.1917895213063707 0  0.2811568640081734 0.1953419740155891 0  0.2910943030079336 0.1949442972519086 0  0.4248707128229096 0.1903620891154409 0  0.3495345477134683 0.1910049392040022 0  0.3839263209759532 0.1875724303465412 0  0.3163225213664417 0.1936127593682991 0  0.5607490645739946 0.1674344802645786 0  0.5596660951367642 0.1597198786900369 0  0.3164166902029146 0.2013197000403495 0  0.2709762880170319 0.195613399908334 0  0.5859300105832695 0.1637584755607502 0  0.4336026307935252 0.1805004121125298 0  0.4233929811696622 0.1823706828782042 0  0.3404177163675244 0.2005191585820473 0  0.2810465924565624 0.204084777432771 0  0.2916273654185306 0.2036298131544207 0  0.3748589821043468 0.1971310170219034 0  0.3500825434325024 0.200102479519009 0  0.3847215150165129 0.1967215587056023 0  0.2647391854744545 0.1960142457967043 0  0.5927890462796583 0.1617986630646825 0  0.5294703722615289 0.1647641366571342 0  0.5148108536408063 0.1673922686369641 0  0.3072114475032816 0.2023637250370826 0  0.5002171603601926 0.1699660065304637 0  0.5703065387702898 0.1662533761313916 0  0.4856756932128702 0.1724726267308769 0  0.4711931685759452 0.1748870033114705 0  0.3663892403190442 0.197807027996793
[...]
<PointData  Vectors="d"> 
<DataArray  type="Float64"  Name="d"  NumberOfComponents="3" format="ascii">-4.1267308121419625e-03 -4.3178626329379736e-02 0.0000000000000000e+00  -4.8665181793508381e-04 -4.3317834311767077e-02 0.0000000000000000e+00  0.0000000000000000e+00 0.0000000000000000e+00 0.0000000000000000e+00  0.0000000000000000e+00 0.0000000000000000e+00 0.0000000000000000e+00  -2.3064575530274017e-03 -4.3248488914262778e-02 0.0000000000000000e+00  0.0000000000000000e+00 0.0000000000000000e+00 0.0000000000000000e+00  0.0000000000000000e+00 0.0000000000000000e+00 0.0000000000000000e+00  0.0000000000000000e+00 0.0000000000000000e+00 0.0000000000000000e+00  0.0000000000000000e+00 0.0000000000000000e+00 0.0000000000000000e+00  6.2660100740523074e-05 -5.5796995351426951e-05 0.0000000000000000e+00  1.2762475423268543e-04 -1.1689877543475367e-04 0.0000000000000000e+00  1.9057915038979769e-04 -1.9251558929903677e-04 0.0000000000000000e+00  2.4873015208264494e-04 -3.1305351853633522e-04 0.0000000000000000e+00  3.0166583823169223e-04 -4.5611198570170649e-04 0.0000000000000000e+00  3.5415639014244494e-04 -6.3086555081205968e-04 0.0000000000000000e+00  3.9911909586243000e-04 -8.2098566049681543e-04 0.0000000000000000e+00  4.3624511972421739e-04 -1.0375873739720024e-03 0.0000000000000000e+00  4.7017756106424970e-04 -1.2737474897641552e-03 0.0000000000000000e+00  4.9759244779934929e-04 -1.5284933152310272e-03 0.0000000000000000e+00  5.2087202409452468e-04 -1.8071742837517571e-03 0.0000000000000000e+00  5.4288608518213892e-04 -2.0903665287449898e-03 0.0000000000000000e+00  5.5307471294879828e-04 -2.3980353587945103e-03 0.0000000000000000e+00  5.6653579084038077e-04 -2.7203317956791483e-03 0.0000000000000000e+00  5.6996757119354298e-04 -3.0529666342032713e-03 0.0000000000000000e+00  5.7351673301533088e-04 -3.4040233864801308e-03 0.0000000000000000e+00  5.7506932755629718e-04 -3.7651018900559134e-03 0.0000000000000000e+00  5.7536618965326033e-04 -4.1452933382916590e-03 0.0000000000000000e+00  5.7520047019278553e-04 -4.5339358443255411e-03 0.0000000000000000e+00  5.7774626806430824e-04 -4.9413997914120643e-03 0.0000000000000000e+00  5.8161095870113561e-04 -5.3623332426158288e-03 0.0000000000000000e+00  5.8765182603500875e-04 -5.7985448370159376e-03 0.0000000000000000e+00  6.0699170896965596e-04 -6.2599707220356605e-03 0.0000000000000000e+00  6.2918793267090591e-04 -6.7234752529636713e-03 0.0000000000000000e+00  6.5690310292546678e-04 -7.2136552716381142e-03 0.0000000000000000e+00  6.8719241225070687e-04 -7.7182661292712921e-03 0.0000000000000000e+00  7.2514031213987600e-04 -8.2458368587545582e-03 0.0000000000000000e+00  7.6694882329142726e-04 -8.7937365097219174e-03 0.0000000000000000e+00  8.0952941929965914e-04 -9.3634191608732639e-03 0.0000000000000000e+00  8.5912727581970150e-04 -9.9673073568696050e-03 0.0000000000000000e+00  9.0935743870008761e-04 -1.0576559491673914e-02 0.0000000000000000e+00  9.5062554908946961e-04 -1.1218622026234458e-02 0.0000000000000000e+00  9.8760825636619765e-04 -1.1884374372887793e-02 0.0000000000000000e+00  1.0211806093472580e-03 -1.2556230808919353e-02 0.0000000000000000e+00  1.0387062695112429e-03 -1.3251490936828918e-02 0.0000000000000000e+00  1.0511555268311237e-03 -1.3957906769558314e-02 0.0000000000000000e+00  1.0478045686026307e-03 -1.4674350970263587e-02 0.0000000000000000e+00  1.0347707791066188e-03 -1.5404488907549569e-02 0.0000000000000000e+00  1.0102013443844073e-03 -1.6139904887030522e-02 0.0000000000000000e+00  9.7274407145509206e-04 -1.6885772529897425e-02 0.0000000000000000e+00  9.2845199621891287e-04 -1.7640697695462032e-02 0.0000000000000000e+00  8.7513812625296438e-04 -1.8404870259110501e-02 0.0000000000000000e+00  8.1372498567810635e-04 -1.9178534010443456e-02 0.0000000000000000e+00  7.4867237888253996e-04 -1.9960867401082976e-02 0.0000000000000000e+00  6.7789916969787536e-04 -2.0752879410795653e-02 0.0000000000000000e+00  6.0407364894040033e-04 -2.1553018621295793e-02 0.0000000000000000e+00  5.2878878694978049e-04 -2.2360458852095921e-02 0.0000000000000000e+00  4.5166406075639238e-04 -2.3176401192326661e-02 0.0000000000000000e+00  3.7473093672263158e-04 -2.3996152539775103e-02 0.0000000000000000e+00  2.9999634703162492e-04 -2.4821240860493241e-02 0.0000000000000000e+00  2.2762928515877655e-04 -2.5652594089816436e-02 0.0000000000000000e+00  1.5753253712499880e-04 -2.6487394839953719e-02 0.0000000000000000e+00  9.3309475377790962e-05 -2.7326235138650443e-02 0.0000000000000000e+00  3.5344877195340338e-05 -2.8170833517537595e-02 0.0000000000000000e+00  -1.8412949546486781e-05 -2.9022543921579467e-02 0.0000000000000000e+00  -6.3960262406085146e-05 -2.9878943928023136e-02 0.0000000000000000e+00  -1.0272159010771277e-04 -3.0742540528233161e-02 0.0000000000000000e+00  -1.3667912082228003e-04 -3.1613923081702702e-02 0.0000000000000000e+00  -1.6956809768818587e-04 -3.2494238989350541e-02 0.0000000000000000e+00  -1.9627573951824388e-04 -3.3384570354315864e-02 0.0000000000000000e+00  -2.1650529949113602e-04 -3.4279215228164184e-02 0.0000000000000000e+00  -2.4179158442158376e-04 -3.5174693973931949e-02 0.0000000000000000e+00  -2.6422334685148396e-04 -3.6082360463771362e-02 0.0000000000000000e+00  -2.8882293619075967e-04 -3.6987533028531513e-02 0.0000000000000000e+00  -3.1604695854518870e-04 -3.7895875111360257e-02 0.0000000000000000e+00  -3.4164391878032361e-04 -3.8803973241107403e-02 0.0000000000000000e+00  -3.7112218055270532e-04 -3.9709894852871096e-02 0.0000000000000000e+00  -3.9889222143449517e-04 -4.0615340823390939e-02 0.0000000000000000e+00  -4.2784604324261815e-04 -4.1517535229928217e-02 0.0000000000000000e+00  -4.5661192779402558e-04 -4.2418398057080822e-02 0.0000000000000000e+00  -4.0898977098163640e-03 -4.2275770801313804e-02 0.0000000000000000e+00  -4.0511474761065688e-03 -4.1370333046507619e-02 0.0000000000000000e+00  -4.0126657857333077e-03 -4.0463332580564032e-02 0.0000000000000000e+00  -3.9710890609010643e-03 -3.9560129949563871e-02 0.0000000000000000e+00  -3.9269373373058804e-03 -3.8658084707296606e-02 0.0000000000000000e+00  -3.8864263448671358e-03 -3.7759671321407146e-02 0.0000000000000000e+00  -3.8442546856724542e-03 -3.6864442184880074e-02 0.0000000000000000e+00  -3.8011325983286753e-03 -3.5969929743704956e-02 0.0000000000000000e+00  -3.7651964471515490e-03 -3.5077899435541418e-02 0.0000000000000000e+00  -3.7252972409254391e-03 -3.4186496511893351e-02 0.0000000000000000e+00  -3.6906910536325301e-03 -3.3294261010958753e-02 0.0000000000000000e+00  -3.6512721341060918e-03 -3.2405814704071480e-02 0.0000000000000000e+00  -3.6035248996677247e-03 -3.1515504127455019e-02 0.0000000000000000e+00  -3.5613107452764840e-03 -3.0622412678113071e-02 0.0000000000000000e+00  -3.5084710864366360e-03 -2.9738730761871071e-02 0.0000000000000000e+00  -3.4443223260944554e-03 -2.8856868221637216e-02 0.0000000000000000e+00  -3.3817169749312892e-03 -2.7973518280034249e-02 0.0000000000000000e+00  -3.3062576740545972e-03 -2.7103778841145561e-02 0.0000000000000000e+00  -3.2218856690519361e-03 -2.6240435508015823e-02 0.0000000000000000e+00  -3.1353895599867091e-03 -2.5378892678903076e-02 0.0000000000000000e+00  -3.0385364951654127e-03 -2.4531994794283536e-02 0.0000000000000000e+00  -2.9380775903156738e-03 -2.3695743176655466e-02 0.0000000000000000e+00  -2.8330374146092602e-03 -2.2865468769035419e-02 0.0000000000000000e+00  -2.7246306368486658e-03 -2.2048368891887972e-02 0.0000000000000000e+00  -2.6187320916935502e-03 -2.1245441727351627e-02 0.0000000000000000e+00  -2.5095811469204488e-03 -2.0452367757904051e-02 0.0000000000000000e+00  -2.4029304867121408e-03 -1.9669905906625474e-02 0.0000000000000000e+00  -2.3044479554337727e-03 -1.8905708065230221e-02 0.0000000000000000e+00  -2.2045877142069159e-03 -1.8147830354964711e-02 0.0000000000000000e+00  -2.1181773047288834e-03 -1.7402612964701636e-02 0.0000000000000000e+00  -2.0408606420273885e-03 -1.6675444798794240e-02 0.0000000000000000e+00  -1.9650353354141200e-03 -1.5954942122275689e-02 0.0000000000000000e+00  -1.9037805729936398e-03 -1.5247587710994917e-02 0.0000000000000000e+00  -1.8502098734790881e-03 -1.4547201753214041e-02 0.0000000000000000e+00  -1.8044769759091358e-03 -1.3857003651785967e-02 0.0000000000000000e+00  -1.7675502038790513e-03 -1.3180992680555989e-02 0.0000000000000000e+00  -1.7308059188259723e-03 -1.2511610873687589e-02 0.0000000000000000e+00  -1.7019209276001740e-03 -1.1857302087036649e-02 0.0000000000000000e+00  -1.6716524055725300e-03 -1.1215771492881825e-02 0.0000000000000000e+00  -1.6407421477050337e-03 -1.0588478280633118e-02 0.0000000000000000e+00  -1.6096280911734519e-03 -9.9776776865997414e-03 0.0000000000000000e+00  -1.5819067881264323e-03 -9.3804342525302849e-03 0.0000000000000000e+00  -1.5520769538435333e-03 -8.8033244501707405e-03 0.0000000000000000e+00  -1.5103116316586974e-03 -8.2384735554371629e-03 0.0000000000000000e+00  -1.4716606961588427e-03 -7.6959493562619901e-03 0.0000000000000000e+00  -1.4200163575461683e-03 -7.1726594545040634e-03 0.0000000000000000e+00  -1.3702627491580203e-03 -6.6656662470537757e-03 0.0000000000000000e+00  -1.3106290412415538e-03 -6.1807519893558316e-03 0.0000000000000000e+00  -1.2513900705929623e-03 -5.7118704929098969e-03 0.0000000000000000e+00  -1.1880844711168806e-03 -5.2654979481078883e-03 0.0000000000000000e+00  -1.1148235885988925e-03 -4.8335730624721636e-03 0.0000000000000000e+00  -1.0480116356699127e-03 -4.4239810869440366e-03 0.0000000000000000e+00  -9.7468959600748820e-04 -4.0355216252111522e-03 0.0000000000000000e+00  -9.1111293628419292e-04 -3.6619792146732576e-03 0.0000000000000000e+00  -8.4773250835577156e-04 -3.3109983735950524e-03 0.0000000000000000e+00  -7.8422246081261897e-04 -2.9652027475271701e-03 0.0000000000000000e+00  -7.2702535154536884e-04 -2.6425549658266466e-03 0.0000000000000000e+00  -6.6579435977754048e-04 -2.3352314621684590e-03 0.0000000000000000e+00  -6.1473691974465354e-04 -2.0412828677704958e-03 0.0000000000000000e+00  -5.6632240405231501e-04 -1.7682387233762663e-03 0.0000000000000000e+00  -5.2202461190774003e-04 -1.5059851516557605e-03 0.0000000000000000e+00  -4.8085899826118858e-04 -1.2627528482453717e-03 0.0000000000000000e+00  -4.3356151550509895e-04 -1.0326410518308544e-03 0.0000000000000000e+00  -3.9383922711471077e-04 -8.2200843120594361e-04 0.0000000000000000e+00  -3.4432281488193546e-04 -6.3095493964525546e-04 0.0000000000000000e+00  -2.9885006131459470e-04 -4.6710186263934162e-04 0.0000000000000000e+00  -2.4212455266256472e-04 -3.2589702163938837e-04 0.0000000000000000e+00  -1.8768188954503841e-04 -2.0397093788785246e-04 0.0000000000000000e+00  -1.2898932301891750e-04 -1.1435946602813886e-04 0.0000000000000000e+00  -6.5300901543979297e-05 -6.3376350138393523e-05 0.0000000000000000e+00  -3.2164198733572393e-03 -4.3214299758328772e-02 0.0000000000000000e+00  -1.3961039352132808e-03 -4.3283490758165247e-02 0.0000000000000000e+00  5.1646450977380673e-06 -6.7719337854625197e-05 0.0000000000000000e+00  -1.9671540894777096e-03 -3.2879080428248733e-02 0.0000000000000000e+00  -2.1228421860872500e-03 -3.7435592798938648e-02 0.0000000000000000e+00  2.7395696875987937e-05 -5.5237765306327560e-04 0.0000000000000000e+00  -1.6854921127845857e-03 -2.7693316013677929e-02 0.0000000000000000e+00  -1.8649120747073619e-03 -3.0292763216899488e-02 0.0000000000000000e+00  -3.4660917744040211e-05 -1.2914023117887950e-03 0.0000000000000000e+00  -2.2833092738968794e-03 -4.0095680674810882e-02 0.0000000000000000e+00  -3.9618221468279573e-05 -2.1693585825661534e-03 0.0000000000000000e+00  -1.3278633611470261e-04 -3.9957121384993034e-03 0.0000000000000000e+00  -1.4439776480749079e-03 -2.5150787235433170e-02 0.0000000000000000e+00  -3.1917073117246163e-04 -5.5093131039700444e-03 0.0000000000000000e+00  -1.1619381760065411e-03 -2.2669242036679520e-02 0.0000000000000000e+00  -3.8575146937895399e-04 -6.9762693325050437e-03 0.0000000000000000e+00  -3.8636351239710513e-04 -9.0581488969141456e-03 0.0000000000000000e+00  -9.2532224078348973e-04 -2.0197373163665839e-02 0.0000000000000000e+00  -6.0910747852279269e-04 -1.7892463849974179e-02 0.0000000000000000e+00  -3.4454047672712756e-04 -1.0825758427695942e-02 0.0000000000000000e+00  -3.4479214689208580e-04 -1.2854188288360479e-02 0.0000000000000000e+00  -4.3145711077530012e-04 -1.5581298533970179e-02 0.0000000000000000e+00  -8.5170574966544928e-05 -2.7919109917491775e-03 0.0000000000000000e+00  -2.0646896631966723e-03 -3.5640326169822246e-02 0.0000000000000000e+00  -3.8614256833022285e-04 -1.4048212753917261e-02 0.0000000000000000e+00  -2.5330536872472876e-04 -4.7727493902232788e-03 0.0000000000000000e+00  -3.8010496152566712e-04 -8.0958523080492378e-03 0.0000000000000000e+00  3.1973300293803744e-06 -9.0383683070431348e-04 0.0000000000000000e+00  -2.5691362147198331e-03 -4.1615424043573303e-02 0.0000000000000000e+00  3.5805163752133076e-05 -2.5956117726272853e-04 0.0000000000000000e+00  -3.7617457468278493e-04 -1.9066890778605301e-02 0.0000000000000000e+00  -9.1060219029047277e-04 -2.3875526775400998e-02 0.0000000000000000e+00  -1.1667900576636816e-03 -2.6381552841013890e-02 0.0000000000000000e+00  -6.4971931595976409e-04 -9.9452057222874334e-03 0.0000000000000000e+00  -6.3415258424494693e-04 -2.1430793594902752e-02 0.0000000000000000e+00  -1.3731588111791752e-03 -2.8942738637608670e-02 0.0000000000000000e+00  -1.7494046653327762e-04 -1.6794968735426647e-02 0.0000000000000000e+00  -1.5184491951078692e-03 -3.1561168963731533e-02 0.0000000000000000e+00  -6.4640256700820094e-04 -1.1845178046653282e-02 0.0000000000000000e+00  -5.7532245007164257e-04 -6.1856391381939430e-03 0.0000000000000000e+00  -1.3825064686116768e-04 -1.7605015572669991e-03 0.0000000000000000e+00  -2.5603087939400772e-03 -3.8708291461390716e-02 0.0000000000000000e+00  -2.5153261612636795e-03 -3.4187552130829114e-02 0.0000000000000000e+00  6.8054257635414775e-05 -3.3555718298760901e-03 0.0000000000000000e+00  -1.3212660118135490e-03 -3.3848694033669004e-02 0.0000000000000000e+00  -4.2781382365054868e-04 -3.4748633936506224e-03 0.0000000000000000e+00  -2.5969998949196679e-03 -3.1924488392377624e-02 0.0000000000000000e+00  -2.4489784216433206e-03 -2.9279077929349043e-02 0.0000000000000000e+00  -2.2368913623127362e-03 -2.6684998209376365e-02 0.0000000000000000e+00  -1.4708496238950153e-03 -3.9156063742861888e-02 0.0000000000000000e+00  1.9496604119692153e-04 -1.6521497419832248e-03 0.0000000000000000e+00  -1.6608043064256458e-03 -2.1694907633845448e-02 0.0000000000000000e+00  -1.9647406070247451e-03 -2.4153138817586999e-02 0.0000000000000000e+00  9.5386652845991579e-05 -9.6787568431086542e-03 0.0000000000000000e+00  2.0809705676775471e-05 -6.0042652659525030e-03 0.0000000000000000e+00  -1.2906631672619572e-03 -1.8645593139855622e-02 0.0000000000000000e+00  -1.1237385220648584e-03 -1.7059358649314710e-02 0.0000000000000000e+00  1.6646341866847730e-04 -1.1564551736261681e-02 0.0000000000000000e+00  -2.9326421181563645e-05 -3.3293669085755301e-05 0.0000000000000000e+00  1.9712505102762876e-05 -2.4257063895509030e-05 0.0000000000000000e+00  1.4602473930123939e-04 -1.5043740704387430e-02 0.0000000000000000e+00  -7.9336258542531352e-04 -7.3751001010049994e-03 0.0000000000000000e+00  -5.3675282115103696e-04 -4.2572708876182702e-03 0.0000000000000000e+00  -1.4330411080991975e-04 -7.0481817846097024e-04 0.0000000000000000e+00  -1.7433573605553035e-04 -1.1373356130196396e-03 0.0000000000000000e+00  2.0017924092029574e-04 -1.3591118690513429e-02 0.0000000000000000e+00  -6.2762801944458101e-04 -5.0418529901856135e-03 0.0000000000000000e+00  -8.4249469631607538e-04 -8.4743618476947891e-03 0.0000000000000000e+00  -3.0984717191441096e-04 -2.5466991950708951e-03 0.0000000000000000e+00  -1.4059365313466134e-03 -3.6347168995320464e-02 0.0000000000000000e+00  -2.7752925652126973e-03 -3.6356313671100836e-02 0.0000000000000000e+00  1.7718661960189943e-04 -2.5482557021196161e-03 0.0000000000000000e+00  -1.1242540373024518e-04 -3.5624442424978518e-04 0.0000000000000000e+00  -1.3714270570911592e-03 -4.0964312542332064e-02 0.0000000000000000e+00  -1.0653258507458384e-03 -1.4964733842721515e-02 0.0000000000000000e+00  -9.3666923813652027e-04 -1.3505015215701955e-02 0.0000000000000000e+00  1.6176528417202596e-04 -4.2748914470449829e-03 0.0000000000000000e+00  1.7809978046909349e-04 -6.8946434849466399e-04 0.0000000000000000e+00  2.1966210465834072e-04 -1.1511385526748353e-03 0.0000000000000000e+00  8.7589493853419684e-05 -7.4038370229519623e-03 0.0000000000000000e+00  1.6089454261578111e-04 -5.0728617996215536e-03 0.0000000000000000e+00  1.9322618728319954e-04 -8.4537826130336689e-03 0.0000000000000000e+00  -7.5301071051011201e-05 -1.9472850193310505e-04 0.0000000000000000e+00  -1.5357180866309682e-03 -4.2242879294235640e-02 0.0000000000000000e+00  -2.6268887840854020e-03 -3.0880373247953029e-02 0.0000000000000000e+00  -2.4549902879663411e-03 -2.8252241268121304e-02 0.0000000000000000e+00  2.1912194301586883e-04 -1.9830783501725885e-03 0.0000000000000000e+00  -2.2172664517337340e-03 -2.5678503374622654e-02 0.0000000000000000e+00  -1.3537648031450833e-03 -3.8093427255884570e-02 0.0000000000000000e+00  -1.9273164822039967e-03 -2.3171883174206244e-02 0.0000000000000000e+00  -1.6220289536810137e-03 -2.0753243579518865e-02 0.0000000000000000e+00  5.9062666290569252e-05 -6.5604268670669628e-03 0.0000000000000000e+00  -1.4708062856198137e-03 -1.9539033144688942e-02 0.0000000000000000e+00  1.8116748945709707e-04 -1.0397672122826510e-02 0.0000000000000000e+00  -1.1271066607150947e-03 -1.6190919522143941e-02 0.0000000000000000e+00  2.4730208357665663e-04 -1.2351332501105304e-02 0.0000000000000000e+00  -3.0005901631704681e-03 -4.0750776824692921e-02 0.0000000000000000e+00  -1.2480647485654816e-03 -3.4893250159633869e-02 0.0000000000000000e+00  -4.1754428045119498e-04 -3.0663759752936905e-03 0.0000000000000000e+00  1.3752918120788683e-04 -3.7738655496065930e-04 0.0000000000000000e+00  7.1444123319700293e-05 -1.5388237668924183e-04 0.0000000000000000e+00  6.2833406640825152e-05 -1.8355402518333740e-02 0.0000000000000000e+00  -9.6016424323185274e-04 -1.2466768150778518e-02 0.0000000000000000e+00  -1.6819606099094890e-04 -2.0695574897051851e-02 0.0000000000000000e+00  -9.1673199350587333e-04 -2.8132544416325359e-02 0.0000000000000000e+00  -4.4546451471495682e-04 -2.3114156201928589e-02 0.0000000000000000e+00  -7.0053847148495894e-04 -2.5597762896302750e-02 0.0000000000000000e+00  -8.5256316774238257e-04 -1.0565936488625978e-02 0.0000000000000000e+00  2.0131587620957455e-04 -1.6121204543278405e-02 0.0000000000000000e+00  -8.1906379610854571e-04 -6.6366356203363692e-03 0.0000000000000000e+00  -9.3730841668261471e-04 -9.3751319714160779e-03 0.0000000000000000e+00  -1.1292074286618440e-03 -3.2429741051451952e-02 0.0000000000000000e+00  -7.6220365394282657e-04 -5.7327108234008278e-03 0.0000000000000000e+00  -1.1955837386905177e-03 -3.0686448228950180e-02 0.0000000000000000e+00  -2.8679779864750418e-04 -2.0197485049549806e-03 0.0000000000000000e+00  -2.4486961727460680e-04 -1.5023539034660928e-03 0.0000000000000000e+00  -2.9819170319784071e-03 -3.9497062094269071e-02 0.0000000000000000e+00  -2.9560831310332281e-03 -3.7820246436484149e-02 0.0000000000000000e+00  -1.0216252943096456e-03 -2.7283773148340084e-02 0.0000000000000000e+00  -7.8468808098418330e-04 -2.4762818445622985e-02 0.0000000000000000e+00  -2.1209126359855347e-04 -1.9876822673569050e-02 0.0000000000000000e+00  -1.1601009157083718e-03 -2.9835525021544584e-02 0.0000000000000000e+00  -5.1762367677579365e-04 -2.2296808000086474e-02 0.0000000000000000e+00  1.6033136750243613e-05 -1.7572256786169381e-02 0.0000000000000000e+00  -8.4838466506171250e-04 -1.1182569776106321e-02 0.0000000000000000e+00  2.1305066215425496e-04 -3.0363178481805212e-03 0.0000000000000000e+00  -2.8624964196826848e-03 -3.5032480608802173e-02 0.0000000000000000e+00  -2.7732069959852481e-03 -3.3335963980002117e-02 0.0000000000000000e+00  1.7321451924286348e-04 -3.7121239410765625e-03 0.