<?xml version="1.0"?>
<VTKFile type="UnstructuredGrid"  version="0.1"  >
<UnstructuredGrid>
<Piece  NumberOfPoints="439" NumberOfCells="725">
<Points>
<DataArray  type="Float64"  NumberOfComponents="3"  format="ascii">0.5906719788311661 0.1287535086549252 0  0.5947474920015045 0.1483806879595674 0  0.2489897949 0.21 0  0.2489897949 0.19 0  0.5927099133453447 0.1385662919058165 0  0.2496355385699469 0.2060260530378829 0  0.249959460510575 0.2020130349814059 0  0.2499594605105767 0.1979869650186357 0  0.24963553856995 0.1939739469621422 0  0.254023957575245 0.209923680618767 0  0.2590672432303931 0.2098349700857229 0  0.2641091155290166 0.2097209520749876 0  0.2691446468478187 0.2095296122358907 0  0.2741738296477333 0.20929698788886 0  0.2792050129911654 0.2090060705481009 0  0.2842248320901179 0.208684811402989 0  0.2892330718693574 0.2083106678157872 0  0.2942391076469538 0.2078951692655307 0  0.2992358546615624 0.2074389893650133 0  0.304230921397472 0.2069294008148589 0  0.3092233830015698 0.206410528765285 0  0.3141958003266236 0.2058340680016483 0  0.3191741161754761 0.205225026757573 0  0.3241308366679097 0.2045894885307607 0  0.3290817791872859 0.2039144301510651 0  0.334022738698589 0.2032176437851185 0  0.3389515741560654 0.2024854055083459 0  0.3438701836780719 0.2017396780768152 0  0.3487791086357771 0.2009654247117003 0  0.3536777870471538 0.2001725208811329 0  0.3585666414154484 0.1993621147956982 0  0.3634490156707578 0.1985210062172488 0  0.3683307531973173 0.1976763493198883 0  0.3732014172484618 0.1968067231811116 0  0.3780677307100331 0.1959281590559626 0  0.3829314186160998 0.1950322968842457 0  0.3877928374282181 0.1941253004561077 0  0.3926524144906781 0.1932076176582878 0  0.3975148460588972 0.1922731105639393 0  0.4023783407028185 0.1913364561143411 0  0.4072380239467908 0.1903831978881845 0  0.4120992284520918 0.1894136330145878 0  0.4169618929987128 0.1884394584888566 0  0.4218195349986963 0.1874447394629457 0  0.4266836374545426 0.1864376878708083 0  0.4315403753799468 0.1854151922505557 0  0.4364032836226172 0.1843751943685685 0  0.4412595277547786 0.1833232899837849 0  0.4461150660166431 0.1822547174210724 0  0.4509705426921868 0.181174194705055 0  0.4558240594231385 0.1800798504106789 0  0.4606705646751884 0.1789724048241333 0  0.4655126932200276 0.1778550087326046 0  0.4703477358372286 0.1767267292394104 0  0.475171264924891 0.1755886677129981 0  0.4799850461584985 0.1744446057997878 0  0.4847871201421862 0.173294402565484 0  0.4895763472440421 0.1721390002238841 0  0.4943537433351774 0.1709815775947033 0  0.4991190795585141 0.1698232562672054 0  0.5038746995239465 0.1686643388782277 0  0.5086216486667715 0.167507559739708 0  0.5133607681937459 0.166355330518234 0  0.5180966771462335 0.1652081899435865 0  0.5228294341564308 0.1640687371139389 0  0.5275617723077123 0.1629405633620392 0  0.5322977735968738 0.1618250116945883 0  0.5370393265769995 0.1607225989004611 0  0.5417898173872003 0.1596361672104058 0  0.5465513006171585 0.1585658182211793 0  0.5513195626562508 0.1575042983111156 0  0.5561021760203988 0.1564641362225189 0  0.5608965776463549 0.1554371516869955 0  0.5657059372374734 0.1544175320247861 0  0.57052906732 0.1534081713018391 0  0.5753593941479571 0.1524011549548868 0  0.5801998153083228 0.1513966844414224 0  0.5850473081069846 0.1503936289140202 0  0.5898961328145648 0.1493876800173357 0  0.5858208584339661 0.1297600351192557 0  0.5809681809096996 0.1307673147660242 0  0.57611404294477 0.1317740150540498 0  0.5712567123936416 0.1327880464675391 0  0.5663995319372122 0.1338104308236809 0  0.5615430109307645 0.1348431795767813 0  0.5566914864579813 0.1358921475944444 0  0.5518425370274114 0.1369571565999682 0  0.5470060890548329 0.138037262738752 0  0.5421796983452 0.1391352276358253 0  0.5373649726847868 0.140246499958594 0  0.5325654544540447 0.1413717897999223 0  0.5277784171502221 0.1425071179106244 0  0.5229994673928523 0.1436478846548429 0  0.5182331377870015 0.1447973575183559 0  0.5134734644250516 0.1459476969919144 0  0.5087198609894147 0.1470980997752116 0  0.50396783220311 0.148248112566076 0  0.4992138166406602 0.1493925408320419 0  0.4944611330721964 0.15053396822762 0  0.4896985725705432 0.1516705155939536 0  0.4849287439231286 0.1528011829155392 0  0.4801557895376735 0.1539294187496847 0  0.4753698487480261 0.155052152160667 0  0.4705790425665838 0.1561701364962666 0  0.4657840507893642 0.1572869267827401 0  0.4609820693040831 0.1583962348585198 0  0.4561807820764346 0.1594978073051307 0  0.4513767343248601 0.1605990107514403 0  0.4465703748502678 0.161685975004868 0  0.4417713061592514 0.1627560706049871 0  0.4369727840508298 0.1638238811168953 0  0.4321748619358322 0.1648694659606572 0  0.4273758164039108 0.1659045022185403 0  0.4225768695815716 0.166921116178611 0  0.4177747652996602 0.1679185823790405 0  0.4129739607210737 0.168905347451774 0  0.408168505665408 0.1698765880552779 0  0.4033624872134218 0.1708365147621295 0  0.3985555399826848 0.1717840003617555 0  0.3937469704154423 0.1727198576617283 0  0.3889363190266583 0.1736474090801671 0  0.3841275373036055 0.1745620493576626 0  0.3793270571108981 0.1754656866620412 0  0.374523543626459 0.1763521491346635 0  0.369726758048727 0.1772181395033257 0  0.3649252335776452 0.178069436232441 0  0.3601226243988786 0.1788958289453492 0  0.3553147056710165 0.1797076529455129 0  0.3505006570627289 0.1804963363460456 0  0.3456928301165766 0.1812673696701477 0  0.3408707729231403 0.1820163084090593 0  0.3360547732457874 0.1827374145364231 0  0.3312248452556768 0.1834403119392875 0  0.3263945720422379 0.184104421981999 0  0.3215677250358787 0.184759867810404 0  0.3167309152491452 0.1853726017314751 0  0.3119063706958849 0.1859546872304877 0  0.3070648320007304 0.1865080952206976 0  0.3022247137838475 0.187016327357313 0  0.2973797792633422 0.1874996657339488 0  0.2925326572278474 0.1879380563675795 0  0.2876996074418706 0.1883450314419672 0  0.2828499508959375 0.1887081399495325 0  0.2780173411281073 0.1890282549228156 0  0.2731722353558966 0.1892952059656628 0  0.2683424481753079 0.189517436800501 0  0.263503553283625 0.1897044989789018 0  0.2586648590206131 0.1898362081913851 0  0.2538279961171045 0.189905909905436 0  0.5916904501151433 0.1336597257763873 0  0.5937293061737814 0.1434730328022593 0  0.2589755899660158 0.2004667155862225 0  0.537208247824162 0.1504934543970102 0  0.5615808680912502 0.1450411443015873 0  0.277451529268737 0.199950390561849 0  0.5090111175328689 0.1571247964655333 0  0.5232519900098105 0.1536843929435321 0  0.2943570052817872 0.1971782302055387 0  0.5757228026981296 0.1416250315320723 0  0.3102327862971447 0.196242042583156 0  0.3366612134834208 0.1936125450931358 0  0.4947482703408895 0.1605789968363906 0  0.3545276699252299 0.1899611282137557 0  0.4804088866915502 0.164010415420374 0  0.3696637463468132 0.1873763174158709 0  0.3883797051927422 0.1838998546301126 0  0.46554262791059 0.1671344996763097 0  0.4511766657504334 0.1709001013003731 0  0.4025451236781903 0.1812649180489549 0  0.4173835398170458 0.1781960905747822 0  0.4360809901472932 0.1742399295115683 0  0.3199902664904997 0.1951006194675382 0  0.5519971823212924 0.1471414909987044 0  0.4256707269278075 0.1763240408760496 0  0.3461837744450791 0.1914665735983343 0  0.380081891017393 0.1856139043324524 0  0.2860032280534338 0.1986043981948917 0  0.5836415761627486 0.1386513660712478 0  0.2680262233239734 0.2013002880349266 0  0.4589224329468947 0.1714402451518705 0  0.4877799639362981 0.1646533714993017 0  0.5020794818779444 0.1612013980858897 0  0.395206838290409 0.1803095097131068 0  0.4733887029330023 0.1680740675484924 0  0.5163191739238243 0.1577466596925669 0  0.4444230931862438 0.1747170583738509 0  0.5305631039948899 0.1543405310000613 0  0.4096932757191661 0.1774603736785477 0  0.3614208531425106 0.1865258799966636 0  0.303012467503836 0.1947836977833405 0  0.5680067786220979 0.1414051739997204 0  0.5436547041445907 0.1460845621467849 0  0.328230330652561 0.1968806936129173 0  0.543146675176752 0.1530502148458669 0  0.329341343986102 0.1899496704395105 0  0.5312921198925674 0.1479249399366257 0  0.5170098285763433 0.1513380532042474 0  0.5027607897210662 0.1547881484330715 0  0.5714154997643095 0.1469558869638329 0  0.3014368764313255 0.2011030898848604 0  0.4741115266203423 0.1616274864521135 0  0.4884749779778949 0.1582245465426872 0  0.3942158616389331 0.1867113206578506 0  0.3602874627482948 0.1929037918024378 0  0.4554114343108103 0.1659656653782264 0  0.4452303567536346 0.1682706544733973 0  0.4087526796183013 0.1838726939189443 0  0.255736579269299 0.1960458542733337 0  0.2550429040886781 0.2034159157954112 0  0.4330703381141296 0.1787532720782524 0  0.3728098788152073 0.1829771982536359 0  0.3395327797273036 0.1883490132193456 0  0.2809959612777921 0.1949519804494725 0  0.2908749551776675 0.1942431855020725 0  0.4231899562117615 0.1810188694992869 0  0.3488852582369318 0.1868889579502909 0  0.3826576040101674 0.1809771265839855 0  0.315949118901997 0.1917179308819086 0  0.5564492527369679 0.1500408825096756 0  0.5550950578100196 0.1424594704064401 0  0.3164713290935277 0.1994218383374296 0  0.2708711284123281 0.1954434167144209 0  0.5812167631420186 0.1457860997418327 0  0.4311946648797609 0.1706761134973319 0  0.421212401667942 0.1732057723198302 0  0.3404560959119503 0.1970343136713095 0  0.2811185414766142 0.203695987734539 0  0.2917152866116842 0.2029074519820435 0  0.3743974761043073 0.1910874027916326 0  0.3500675895026568 0.1959084185753276 0  0.3840775592047698 0.189947819096596 0  0.2646751484070255 0.1959323278601252 0  0.5879654198609821 0.143688669077428 0  0.5255662595953726 0.1487915851284518 0  0.5113020229470208 0.1522286349806038 0  0.3072927242149468 0.2009630019581539 0  0.4970452194059282 0.1556774934789008 0  0.5658326917516918 0.1486132389726167 0  0.4827316218785923 0.1591000961011967 0  0.4683819392890667 0.1624711168883315 0  0.3660853785561216 0.1923997965319341 0  0.460935
[...]
<PointData  Vectors="d"> 
<DataArray  type="Float64"  Name="d"  NumberOfComponents="3" format="ascii">-9.3280211688337149e-03 -6.1246491345074837e-02 0.0000000000000000e+00  -5.2525079984955814e-03 -6.1619312040432674e-02 0.0000000000000000e+00  0.0000000000000000e+00 0.0000000000000000e+00 0.0000000000000000e+00  0.0000000000000000e+00 0.0000000000000000e+00 0.0000000000000000e+00  -7.2900866546554760e-03 -6.1433708094183519e-02 0.0000000000000000e+00  0.0000000000000000e+00 0.0000000000000000e+00 0.0000000000000000e+00  0.0000000000000000e+00 0.0000000000000000e+00 0.0000000000000000e+00  0.0000000000000000e+00 0.0000000000000000e+00 0.0000000000000000e+00  0.0000000000000000e+00 0.0000000000000000e+00 0.0000000000000000e+00  9.0356969615817907e-05 -7.6319381232971948e-05 0.0000000000000000e+00  1.8983691913885314e-04 -1.6502991427712259e-04 0.0000000000000000e+00  2.8790351212450350e-04 -2.7904792501236595e-04 0.0000000000000000e+00  3.7962912528877028e-04 -4.7038776410924962e-04 0.0000000000000000e+00  4.6500621957640460e-04 -7.0301211114002908e-04 0.0000000000000000e+00  5.5238385739002761e-04 -9.9392945189912029e-04 0.0000000000000000e+00  6.2839725072422593e-04 -1.3151885970108766e-03 0.0000000000000000e+00  6.9283132434089115e-04 -1.6893321842127848e-03 0.0000000000000000e+00  7.5506139630157729e-04 -2.1048307344692777e-03 0.0000000000000000e+00  8.0800270529156901e-04 -2.5610106349867839e-03 0.0000000000000000e+00  8.5926373557224437e-04 -3.0705991851411457e-03 0.0000000000000000e+00  9.0791963405172636e-04 -3.5894712347149141e-03 0.0000000000000000e+00  9.3653125348698997e-04 -4.1659319983517410e-03 0.0000000000000000e+00  9.7104139672121194e-04 -4.7749732424270134e-03 0.0000000000000000e+00  9.8395618353647814e-04 -5.4105114692393121e-03 0.0000000000000000e+00  9.9109299729421081e-04 -6.0855698489349032e-03 0.0000000000000000e+00  9.8824680296829529e-04 -6.7823562148814293e-03 0.0000000000000000e+00  9.7327655483683167e-04 -7.5145944916541014e-03 0.0000000000000000e+00  9.4808037121420956e-04 -8.2603219231847241e-03 0.0000000000000000e+00  9.1319962330108247e-04 -9.0345752882997326e-03 0.0000000000000000e+00  8.6807232905930336e-04 -9.8274791188671783e-03 0.0000000000000000e+00  8.1312099173579274e-04 -1.0637885204301810e-02 0.0000000000000000e+00  7.5168954142679689e-04 -1.1478993782751164e-02 0.0000000000000000e+00  6.8962136236771316e-04 -1.2323650680111717e-02 0.0000000000000000e+00  6.1647970788310919e-04 -1.3193276818888322e-02 0.0000000000000000e+00  5.3898746384540175e-04 -1.4071840944037349e-02 0.0000000000000000e+00  4.5886966428760072e-04 -1.4967703115754313e-02 0.0000000000000000e+00  3.7648277078437820e-04 -1.5874699543892264e-02 0.0000000000000000e+00  2.9225412761488707e-04 -1.6792382341712198e-02 0.0000000000000000e+00  2.1087999022667024e-04 -1.7726889436060680e-02 0.0000000000000000e+00  1.3056892852007635e-04 -1.8663543885659065e-02 0.0000000000000000e+00  4.6446466880013087e-05 -1.9616802111815504e-02 0.0000000000000000e+00  -3.6154733439290868e-05 -2.0586366985412222e-02 0.0000000000000000e+00  -1.1729589243899900e-04 -2.1560541511143391e-02 0.0000000000000000e+00  -2.0345959806723567e-04 -2.2555260537054270e-02 0.0000000000000000e+00  -2.8316284784928909e-04 -2.3562312129191614e-02 0.0000000000000000e+00  -3.7023062807821486e-04 -2.4584807749444274e-02 0.0000000000000000e+00  -4.5112809106019169e-04 -2.5624805631431449e-02 0.0000000000000000e+00  -5.3868966455420763e-04 -2.6676710016215136e-02 0.0000000000000000e+00  -6.2695710835384145e-04 -2.7745282578927569e-02 0.0000000000000000e+00  -7.1528613845771815e-04 -2.8825805294945026e-02 0.0000000000000000e+00  -8.0557511314803640e-04 -2.9920149589321245e-02 0.0000000000000000e+00  -9.0287556672768218e-04 -3.1027595175866635e-02 0.0000000000000000e+00  -1.0045527275389489e-03 -3.2144991267395437e-02 0.0000000000000000e+00  -1.1133158159712395e-03 -3.3273270760589509e-02 0.0000000000000000e+00  -1.2335924339757492e-03 -3.4411332287001835e-02 0.0000000000000000e+00  -1.3636169060148656e-03 -3.5555394200212212e-02 0.0000000000000000e+00  -1.5053486279899028e-03 -3.6705597434516041e-02 0.0000000000000000e+00  -1.6599272317644412e-03 -3.7860999776115963e-02 0.0000000000000000e+00  -1.8263368462835628e-03 -3.9018422405296599e-02 0.0000000000000000e+00  -2.0048063285753618e-03 -4.0176743732794590e-02 0.0000000000000000e+00  -2.1929920688027247e-03 -4.1335661121772262e-02 0.0000000000000000e+00  -2.3898486316159904e-03 -4.2492440260291996e-02 0.0000000000000000e+00  -2.5945348102580862e-03 -4.3644669481766082e-02 0.0000000000000000e+00  -2.8024315634078657e-03 -4.4791810056413535e-02 0.0000000000000000e+00  -3.0134802588698433e-03 -4.5931262886061044e-02 0.0000000000000000e+00  -3.2249478132268302e-03 -4.7059436637960805e-02 0.0000000000000000e+00  -3.4327522297246831e-03 -4.8174988305411746e-02 0.0000000000000000e+00  -3.6350049552371791e-03 -4.9277401099538889e-02 0.0000000000000000e+00  -3.8283198506525958e-03 -5.0363832789594137e-02 0.0000000000000000e+00  -4.0106423263322338e-03 -5.1434181778820712e-02 0.0000000000000000e+00  -4.1861859928950373e-03 -5.2495701688884344e-02 0.0000000000000000e+00  -4.3473783343897744e-03 -5.3535863777481159e-02 0.0000000000000000e+00  -4.4967824140934188e-03 -5.4562848313004418e-02 0.0000000000000000e+00  -4.6312285286380563e-03 -5.5582467975213871e-02 0.0000000000000000e+00  -4.7519041517459833e-03 -5.6591828698160936e-02 0.0000000000000000e+00  -4.8653830294264665e-03 -5.7598845045113214e-02 0.0000000000000000e+00  -4.9687675747113417e-03 -5.8603315558577611e-02 0.0000000000000000e+00  -5.0650804816962311e-03 -5.9606371085979798e-02 0.0000000000000000e+00  -5.1600614797757656e-03 -6.0612319982664323e-02 0.0000000000000000e+00  -9.2353358604168774e-03 -6.0239964880744221e-02 0.0000000000000000e+00  -9.1442076790584862e-03 -5.9232685233975804e-02 0.0000000000000000e+00  -9.0545399383492424e-03 -5.8225984945950202e-02 0.0000000000000000e+00  -8.9680647838310621e-03 -5.7211953532460849e-02 0.0000000000000000e+00  -8.8814395346392769e-03 -5.6189569176319121e-02 0.0000000000000000e+00  -8.7941548354668417e-03 -5.5156820423218726e-02 0.0000000000000000e+00  -8.7018736026368958e-03 -5.4107852405555663e-02 0.0000000000000000e+00  -8.6070173275772082e-03 -5.3042843400031764e-02 0.0000000000000000e+00  -8.4996595945249342e-03 -5.1962737261248011e-02 0.0000000000000000e+00  -8.3822445985036655e-03 -5.0864772364174714e-02 0.0000000000000000e+00  -8.2531645533175744e-03 -4.9753500041405996e-02 0.0000000000000000e+00  -8.1088770784601919e-03 -4.8628210200077744e-02 0.0000000000000000e+00  -7.9521086766738899e-03 -4.7492882089375688e-02 0.0000000000000000e+00  -7.7872527284106180e-03 -4.6352115345157090e-02 0.0000000000000000e+00  -7.6097766286612380e-03 -4.5202642481644038e-02 0.0000000000000000e+00  -7.4256442849728131e-03 -4.4052303008085533e-02 0.0000000000000000e+00  -7.2354420150071447e-03 -4.2901900224788396e-02 0.0000000000000000e+00  -7.0436650957125726e-03 -4.1751887433923947e-02 0.0000000000000000e+00  -6.8538749525574637e-03 -4.0607459167958104e-02 0.0000000000000000e+00  -6.6627528153840052e-03 -3.9466031772380027e-02 0.0000000000000000e+00  -6.4815076114287549e-03 -3.8329484406046416e-02 0.0000000000000000e+00  -6.3075305532245109e-03 -3.7198817084460850e-02 0.0000000000000000e+00  -6.1366792330608214e-03 -3.6070581250315210e-02 0.0000000000000000e+00  -5.9788143170784501e-03 -3.4947847839333079e-02 0.0000000000000000e+00  -5.8258147929128312e-03 -3.3829863503733293e-02 0.0000000000000000e+00  -5.6770008645041460e-03 -3.2713073217259941e-02 0.0000000000000000e+00  -5.5351766441723640e-03 -3.1603765141480118e-02 0.0000000000000000e+00  -5.3926581662003658e-03 -3.0502192694869226e-02 0.0000000000000000e+00  -5.2529002121501269e-03 -2.9400989248559641e-02 0.0000000000000000e+00  -5.1154539811129720e-03 -2.8314024995131918e-02 0.0000000000000000e+00  -4.9707169665203083e-03 -2.7243929395012963e-02 0.0000000000000000e+00  -4.8254333693167435e-03 -2.6176118883104744e-02 0.0000000000000000e+00  -4.6795497786975429e-03 -2.5130534039342903e-02 0.0000000000000000e+00  -4.5347896050022688e-03 -2.4095497781459609e-02 0.0000000000000000e+00  -4.3899307217149615e-03 -2.3078883821388976e-02 0.0000000000000000e+00  -4.2482292979879746e-03 -2.2081417620959536e-02 0.0000000000000000e+00  -4.1052281709319984e-03 -2.1094652548225904e-02 0.0000000000000000e+00  -3.9668775209513807e-03 -2.0123411944722138e-02 0.0000000000000000e+00  -3.8290902672777432e-03 -1.9163485237870523e-02 0.0000000000000000e+00  -3.6922317923630044e-03 -1.8215999638244572e-02 0.0000000000000000e+00  -3.5569956539479764e-03 -1.7280142338271694e-02 0.0000000000000000e+00  -3.4238413370963725e-03 -1.6352590919832832e-02 0.0000000000000000e+00  -3.2888173545027018e-03 -1.5437950642337394e-02 0.0000000000000000e+00  -3.1454918415841733e-03 -1.4534313337958776e-02 0.0000000000000000e+00  -3.0051996203668504e-03 -1.3647850865336476e-02 0.0000000000000000e+00  -2.8581794924502392e-03 -1.2781860496674286e-02 0.0000000000000000e+00  -2.7158982578632859e-03 -1.1930563767559001e-02 0.0000000000000000e+00  -2.5747017309829079e-03 -1.1104171054650879e-02 0.0000000000000000e+00  -2.4388147531942748e-03 -1.0292347054487035e-02 0.0000000000000000e+00  -2.3090576558600861e-03 -9.5036636539545007e-03 0.0000000000000000e+00  -2.1730788963544028e-03 -8.7326303298523485e-03 0.0000000000000000e+00  -2.0513303841515882e-03 -7.9836915909406239e-03 0.0000000000000000e+00  -1.9235243558661974e-03 -7.2625854635768594e-03 0.0000000000000000e+00  -1.8096466403383039e-03 -6.5596880607124101e-03 0.0000000000000000e+00  -1.6961141481369746e-03 -5.8955780180009951e-03 0.0000000000000000e+00  -1.5791554488385005e-03 -5.2401321895959906e-03 0.0000000000000000e+00  -1.4721595299138108e-03 -4.6273982685248105e-03 0.0000000000000000e+00  -1.3528983775161797e-03 -4.0453127695124300e-03 0.0000000000000000e+00  -1.2506313670277117e-03 -3.4919047793024256e-03 0.0000000000000000e+00  -1.1469438782720602e-03 -2.9836726426870010e-03 0.0000000000000000e+00  -1.0480726931390962e-03 -2.5003342660512178e-03 0.0000000000000000e+00  -9.5138902299560571e-04 -2.0619436324205310e-03 0.0000000000000000e+00  -8.4063310331680371e-04 -1.6549685580328427e-03 0.0000000000000000e+00  -7.4648394359214348e-04 -1.2918600504674628e-03 0.0000000000000000e+00  -6.3528800576433575e-04 -9.7174507718439320e-04 0.0000000000000000e+00  -5.3658807232786034e-04 -7.0479403433718491e-04 0.0000000000000000e+00  -4.2256954727809028e-04 -4.8256319949903782e-04 0.0000000000000000e+00  -3.1765873332264302e-04 -2.9550102109813321e-04 0.0000000000000000e+00  -2.1254729069592176e-04 -1.6379180861491606e-04 0.0000000000000000e+00  -1.0560448855343789e-04 -9.4090094563963121e-05 0.0000000000000000e+00  -8.3095498848567949e-03 -6.1340274223590993e-02 0.0000000000000000e+00  -6.2706938262187253e-03 -6.1526967197713632e-02 0.0000000000000000e+00  2.1634343664960384e-06 -8.5673756617859787e-05 0.0000000000000000e+00  -5.9379865611453083e-03 -4.9506545602958758e-02 0.0000000000000000e+00  -6.6589213855657832e-03 -5.4929314279311407e-02 0.0000000000000000e+00  1.3655693464944941e-07 -8.4380138034363683e-04 0.0000000000000000e+00  -4.8384658440280420e-03 -4.2777546183558564e-02 0.0000000000000000e+00  -5.4290104839275427e-03 -4.6217949705564684e-02 0.0000000000000000e+00  -1.5388992397753805e-04 -2.1129606349999048e-03 0.0000000000000000e+00  -7.0552804403629984e-03 -5.7917948568262670e-02 0.0000000000000000e+00  -1.8005335978077582e-04 -3.7284159977417630e-03 0.0000000000000000e+00  -3.3896205843425364e-04 -7.2169161502609897e-03 0.0000000000000000e+00  -4.2698959191564889e-03 -3.9323345812699563e-02 0.0000000000000000e+00  -7.5394764567456073e-04 -1.0038871786305175e-02 0.0000000000000000e+00  -3.7778624516423697e-03 -3.5891927228710936e-02 0.0000000000000000e+00  -1.0736250437419336e-03 -1.2637920279498071e-02 0.0000000000000000e+00  -1.5085523175072872e-03 -1.6100145369970197e-02 0.0000000000000000e+00  -3.4431271386834005e-03 -3.2407172749359683e-02 0.0000000000000000e+00  -2.9810659337631373e-03 -2.9099898699536626e-02 0.0000000000000000e+00  -1.8083677236428349e-03 -1.8832739301969530e-02 0.0000000000000000e+00  -2.1675519269109644e-03 -2.1803909425323571e-02 0.0000000000000000e+00  -2.6209877171579463e-03 -2.5745832793108943e-02 0.0000000000000000e+00  -2.5700853517055970e-04 -4.9082647471016460e-03 0.0000000000000000e+00  -6.4081717867927514e-03 -5.2849624786653365e-02 0.0000000000000000e+00  -2.3959877609059802e-03 -2.3524863944774568e-02 0.0000000000000000e+00  -5.8222018146830820e-04 -8.6845215811031037e-03 0.0000000000000000e+00  -1.2907435484976598e-03 -1.4537190846999603e-02 0.0000000000000000e+00  -6.5109638776096650e-05 -1.4371463757264365e-03 0.0000000000000000e+00  -7.4808050153710596e-03 -5.9593549863626624e-02 0.0000000000000000e+00  3.6907178110673729e-05 -3.7483761180250464e-04 0.0000000000000000e+00  -2.6510072957331246e-03 -3.0810118176929791e-02 0.0000000000000000e+00  -3.4563105400472003e-03 -3.7596991829507431e-02 0.0000000000000000e+00  -3.9882097152540274e-03 -4.1048965242922106e-02 0.0000000000000000e+00  -2.0971277782685796e-03 -1.7440126958089747e-02 0.0000000000000000e+00  -3.0161544264872345e-03 -3.4176295780312699e-02 0.0000000000000000e+00  -4.5799347862212746e-03 -4.4503703636251633e-02 0.0000000000000000e+00  -2.3189299395217334e-03 -2.7533304954949017e-02 0.0000000000000000e+00  -5.1674218319948482e-03 -4.7909832328758492e-02 0.0000000000000000e+00  -2.4421074663654547e-03 -2.0289262992649996e-02 0.0000000000000000e+00  -1.2764729868245809e-03 -1.1223756674528266e-02 0.0000000000000000e+00  -3.5919015805994567e-04 -2.9659388878463351e-03 0.0000000000000000e+00  -7.2741928497249732e-03 -5.6344462671429965e-02 0.0000000000000000e+00  -6.8051517744654576e-03 -5.1043916326981714e-02 0.0000000000000000e+00  3.7557437876879754e-05 -5.9908279133233490e-03 0.0000000000000000e+00  -5.2712268729940828e-03 -5.0790106723609472e-02 0.0000000000000000e+00  -8.9338309789680848e-04 -6.2100079910385421e-03 0.0000000000000000e+00  -6.6289653312438758e-03 -4.8200241727785281e-02 0.0000000000000000e+00  -6.0798395306217896e-03 -4.4787128460158393e-02 0.0000000000000000e+00  -5.4974612690559003e-03 -4.1337033231338347e-02 0.0000000000000000e+00  -6.0560311043997396e-03 -5.6918931371755771e-02 0.0000000000000000e+00  2.5577816637076836e-04 -2.7717284507333415e-03 0.0000000000000000e+00  -4.4838901360688289e-03 -3.4497695212290513e-02 0.0000000000000000e+00  -4.9518558953722059e-03 -3.7900635121719074e-02 0.0000000000000000e+00  -8.9754503282990484e-04 -1.7163497677745988e-02 0.0000000000000000e+00  -2.1930398411700545e-04 -1.0971026533157235e-02 0.0000000000000000e+00  -3.9714465349042086e-03 -3.0159516286172854e-02 0.0000000000000000e+00  -3.7022257690458339e-03 -2.7854527191003418e-02 0.0000000000000000e+00  -1.1921441703207146e-03 -2.0002124416654755e-02 0.0000000000000000e+00  -4.9720710898043284e-05 -3.9982752395777678e-05 0.0000000000000000e+00  2.8168057738306004e-05 -2.6727203700298169e-05 0.0000000000000000e+00  -1.7328095323392626e-03 -2.5020485685902989e-02 0.0000000000000000e+00  -1.8263227932026223e-03 -1.3249043982219454e-02 0.0000000000000000e+00  -1.0930568591270423e-03 -7.6977789746433562e-03 0.0000000000000000e+00  -3.0420684119116242e-04 -1.0948117445775554e-03 0.0000000000000000e+00  -3.9368356632176718e-04 -1.8384473628557474e-03 0.0000000000000000e+00  -1.4805773702277300e-03 -2.2934338306667499e-02 0.0000000000000000e+00  -1.2769174959811331e-03 -9.1578342438968820e-03 0.0000000000000000e+00  -2.1112116621020728e-03 -1.5069665610250435e-02 0.0000000000000000e+00  -6.8324963635900350e-04 -4.4415276814613880e-03 0.0000000000000000e+00  -5.7057483683732703e-03 -5.3740766750223490e-02 0.0000000000000000e+00  -7.3463298919574363e-03 -5.3616721954697612e-02 0.0000000000000000e+00  2.3182551021481244e-04 -4.4461174050395690e-03 0.0000000000000000e+00  -2.1758500843407477e-04 -5.2622761816286344e-04 0.0000000000000000e+00  -6.0846744983418400e-03 -5.8936688361249573e-02 0.0000000000000000e+00  -3.4732917645101066e-03 -2.4789032457919420e-02 0.0000000000000000e+00  -3.1172487398565844e-03 -2.2669925774076029e-02 0.0000000000000000e+00  2.0014482859795043e-04 -7.7597363577828317e-03 0.0000000000000000e+00  2.5004880052095118e-04 -1.0782540467266166e-03 0.0000000000000000e+00  3.0758329781188886e-04 -1.8734997250519749e-03 0.0000000000000000e+00  -3.7391650618592213e-04 -1.3447451253222775e-02 0.0000000000000000e+00  1.4594061277015680e-04 -9.2669227433029369e-03 0.0000000000000000e+00  -4.5072962445998727e-04 -1.5227522222039920e-02 0.0000000000000000e+00  -1.3933813847991747e-04 -2.7664643851228147e-04 0.0000000000000000e+00  -6.3593445053072390e-03 -6.0352873281490201e-02 0.0000000000000000e+00  -6.5310014502416771e-03 -4.6852924776635343e-02 0.0000000000000000e+00  -5.9638209817519132e-03 -4.3415874924481561e-02 0.0000000000000000e+00  3.0039865468101974e-04 -3.3838014291012485e-03 0.0000000000000000e+00  -5.3892074059982307e-03 -3.9967016426185636e-02 0.0000000000000000e+00  -5.8276118217430919e-03 -5.5733564414659445e-02 0.0000000000000000e+00  -4.8713878164817880e-03 -3.6544413803886476e-02 0.0000000000000000e+00  -4.4332582405596007e-03 -3.3169130002657893e-02 0.0000000000000000e+00  -2.4479909663228206e-04 -1.1967658331925849e-02 0.0000000000000000e+00  -4.2272792497900424e-03 -3.1440962446730086e-02 0.0000000000000000e+00  -9.2393920223307483e-04 -1.8277415282872685e-02 0.0000000000000000e+00  -3.6608867351598262e-03 -2.6583183440103367e-02 0.0000000000000000e+00  -1.2159942658969097e-03 -2.1156186392092709e-02 0.0000000000000000e+00  -7.9153886780441232e-03 -5.8605209483890294e-02 0.0000000000000000e+00  -5.3302525606095308e-03 -5.2054942033923496e-02 0.0000000000000000e+00  -8.7865855736000487e-04 -5.4303891461056726e-03 0.0000000000000000e+00  1.9650242180115448e-04 -5.6392885153722051e-04 0.0000000000000000e+00  1.0198757579983848e-04 -2.1401537894427880e-04 0.0000000000000000e+00  -2.0067517690958861e-03 -2.9807945299774728e-02 0.0000000000000000e+00  -2.9984838561514112e-03 -2.1150642182467878e-02 0.0000000000000000e+00  -2.3424920524907755e-03 -3.3153123962952211e-02 0.0000000000000000e+00  -3.8535678613875798e-03 -4.3475166631990914e-02 0.0000000000000000e+00  -2.7697253932098720e-03 -3.6560697297196888e-02 0.0000000000000000e+00  -3.2717084350109647e-03 -4.0013189026159621e-02 0.0000000000000000e+00  -2.5199905862786421e-03 -1.8349888563012489e-02 0.0000000000000000e+00  -1.7342255381438520e-03 -2.6584287725156738e-02 0.0000000000000000e+00  -1.7565299541645650e-03 -1.1977588391491843e-02 0.0000000000000000e+00  -2.4319636397864969e-03 -1.6492065757593172e-02 0.0000000000000000e+00  -4.8097017656115286e-03 -4.9065910933082352e-02 0.0000000000000000e+00  -1.5615117864776875e-03 -1.0394713254801473e-02 0.0000000000000000e+00  -4.6102049819161470e-03 -4.6834181730026798e-02 0.0000000000000000e+00  -6.3932326982536552e-04 -3.4482096096751561e-03 0.0000000000000000e+00  -5.4481336197963854e-04 -2.4914948281699687e-03 0.0000000000000000e+00  -7.8163390914505401e-03 -5.7205308109093418e-02 0.0000000000000000e+00  -7.6770073856121295e-03 -5.5301086217418118e-02 0.0000000000000000e+00  -3.8863212600214270e-03 -4.2305685125605175e-02 0.0000000000000000e+00  -3.3265785042503114e-03 -3.8845332724998377e-02 0.0000000000000000e+00  -2.4103522206829035e-03 -3.1980466848046139e-02 0.0000000000000000e+00  -4.4287258252957576e-03 -4.5724010519102472e-02 0.0000000000000000e+00  -2.8557625759723982e-03 -3.5405983001523929e-02 0.0000000000000000e+00  -2.0629471064340806e-03 -2.8671698744945462e-02 0.0000000000000000e+00  -2.6242708354038799e-03 -1.9277154633446449e-02 0.0000000000000000e+00  3.0744621178726054e-04 -5.3782262612967098e-03 0.0000000000000000e+00  -7.3344284144749817e-03 -5.2026310203066480e-02 0.0000000000000000e+00  -7.0366176436100674e-03 -4.9953136522586788e-02 0.0000000000000000e+00  2.34792354568