<?xml version="1.0"?>
<VTKFile type="UnstructuredGrid"  version="0.1"  >
<UnstructuredGrid>
<Piece  NumberOfPoints="439" NumberOfCells="725">
<Points>
<DataArray  type="Float64"  NumberOfComponents="3"  format="ascii">0.5632478039952182 0.0595746928208619 0  0.5731849391413725 0.0768282855953783 0  0.2489897949 0.21 0  0.2489897949 0.19 0  0.5682163908071136 0.06820121413910075 0  0.2496355385699469 0.2060260530378829 0  0.249959460510575 0.2020130349814059 0  0.2499594605105767 0.1979869650186357 0  0.24963553856995 0.1939739469621422 0  0.254109838279947 0.2098434540362114 0  0.2592459827721512 0.2096713871004283 0  0.2643785107356652 0.2094515568845462 0  0.269494695850689 0.2090875990251159 0  0.2745957895235374 0.2086446384838021 0  0.2796946109817055 0.2080907104822869 0  0.2847688377715544 0.207479000288267 0  0.2898148072248849 0.2067678006100937 0  0.2948509941678397 0.2059768719115214 0  0.2998641249012684 0.2051077218184725 0  0.304867623532019 0.2041322373991996 0  0.309866378153093 0.2031391253518324 0  0.3148186880007655 0.2020317918488875 0  0.3197810953959448 0.200858260583613 0  0.3246980883233221 0.1996318249372168 0  0.3296002964491508 0.198320452269875 0  0.3344816634397008 0.1969617989976441 0  0.3393350716384546 0.1955223294784864 0  0.3441668295268978 0.1940506219519126 0  0.3489774803381567 0.19250920940644 0  0.3537660362437824 0.1909205380568325 0  0.3585313119284794 0.1892851460298825 0  0.3632832173551203 0.1875694999533109 0  0.3680315897747843 0.1858425304381787 0  0.3727463778806568 0.184047222019173 0  0.3774432063656405 0.182223530594452 0  0.3821210273853764 0.1803471879265255 0  0.3867798224350358 0.1784330241663335 0  0.3914166154839725 0.176483059733229 0  0.3960359138132042 0.1744689056656455 0  0.4006530089992282 0.1724476827842163 0  0.405230495929527 0.1703744416858476 0  0.4097917147981236 0.1682530607470264 0  0.4143477675755669 0.1661207956145019 0  0.4188666134240717 0.1639391400914174 0  0.4233833067029303 0.1617281988712518 0  0.4278682758875973 0.1594899607435884 0  0.4323433822714905 0.157214194280396 0  0.4367934835165934 0.1549218723390653 0  0.4412220923890426 0.1526012130529008 0  0.4456363721230519 0.1502601181135992 0  0.4500312473067892 0.147897236672939 0  0.4544012792096509 0.1455180239840813 0  0.4587553538024435 0.1431233035991444 0  0.4630881873987015 0.1407128860870176 0  0.4673970139116145 0.138292198099044 0  0.4716888964035457 0.1358616604536763 0  0.4759607667501686 0.1334212153964934 0  0.4802132987330749 0.1309755129830522 0  0.4844524186506005 0.1285235120376522 0  0.4886768896728246 0.1260659156925858 0  0.4928884254241353 0.1236051251016126 0  0.497093105091068 0.121140513724239 0  0.5012904511263786 0.1186734481758219 0  0.5054826548405313 0.1162043857220988 0  0.5096747497782633 0.113733750111803 0  0.5138671298692216 0.1112638048830428 0  0.5180626053899675 0.1087950814437916 0  0.5222600982942335 0.1063276621718149 0  0.5264652157675549 0.1038599941254744 0  0.5306818403557571 0.1013951514062567 0  0.5349005377407433 0.09893372813568432 0  0.5391302299062153 0.09647371553769657 0  0.5433681868506679 0.09401910469542669 0  0.54761307571063 0.09156271657214941 0  0.5518681434424878 0.08910775469787918 0  0.5561247513797279 0.08665333940475356 0  0.5603874683860502 0.08419715479055716 0  0.5646537491653453 0.08174155216684613 0  0.5689189251191392 0.07928526907847749 0  0.5589838115512233 0.06203184358185025 0  0.5547192195622582 0.06449099362221883 0  0.5504539462671456 0.06695079076637109 0  0.5461887159566539 0.06941431178153969 0  0.5419266122876016 0.07188117000402704 0  0.5376653968876411 0.07435198804354036 0  0.5334109997200815 0.0768282047813076 0  0.5291626349609326 0.07931012901351128 0  0.5249211726393972 0.08179487104736147 0  0.5206909787812516 0.08428281172170692 0  0.5164675171715488 0.08677360547181469 0  0.5122553164871991 0.08926224978345673 0  0.5080557040831 0.09174878028019623 0  0.5038592320815161 0.09423661753601482 0  0.499671461728707 0.09671602789609912 0  0.4954897214837727 0.09918655024459355 0  0.4913100249146782 0.1016546860447702 0  0.4871293150317019 0.1041101031416169 0  0.4829448720390307 0.1065520263073725 0  0.478760478175242 0.1089886656282256 0  0.4745635306816813 0.1114118025765753 0  0.4703543887894721 0.113819351892188 0  0.4661431587711911 0.1162204358957843 0  0.4619110378143151 0.1186087030169743 0  0.4576633081318206 0.1209796547104483 0  0.4534101305547713 0.1233428110238473 0  0.4491381134280796 0.1256919138392164 0  0.4448495299528841 0.1280194263890507 0  0.440557534345495 0.1303430404658423 0  0.4362404058836436 0.1326470196442276 0  0.431914363558027 0.1349167989344593 0  0.4275869724380725 0.137179422791657 0  0.4232385697044589 0.1394089599628197 0  0.4188799091922201 0.1416221028854536 0  0.4145093604354597 0.1438029659987823 0  0.410120277631377 0.1459447469659404 0  0.4057314334393798 0.1480618880356316 0  0.4013207912458812 0.1501399845671005 0  0.3969029090660824 0.1521827424296434 0  0.392472698375141 0.1541855843943086 0  0.3880238178435351 0.156148887141918 0  0.3835542796453861 0.1580848005489501 0  0.3790673526306082 0.1599772284192098 0  0.3745890770790397 0.1618329542620351 0  0.3700783590835109 0.1636451449509197 0  0.3655711136397449 0.1654039885651553 0  0.3610390086967992 0.1671313484447093 0  0.3564990513016782 0.1687990564851812 0  0.3519411364021761 0.1704332297242802 0  0.3473674177143738 0.1720094233423329 0  0.3428084516171928 0.1735394057991913 0  0.3382127033759753 0.1750126698863516 0  0.3336250519870638 0.1764155759354445 0  0.3289983078447468 0.1777737402684018 0  0.3243613699386672 0.1790457162069241 0  0.3197273637769132 0.1802981238949701 0  0.3150627229384483 0.181460959624788 0  0.310418453642328 0.1825585838475808 0  0.3057336541067813 0.1835990716380772 0  0.3010429840940591 0.1845470483760259 0  0.2963369121488277 0.1854454182880908 0  0.2916162904957851 0.1862548961701808 0  0.2869170261051205 0.1870019437167985 0  0.2821752464811377 0.1876690212192329 0  0.27746019613341 0.1882523122666726 0  0.2727123251545985 0.18873851724724 0  0.267988302839375 0.1891398793649668 0  0.2632423108896149 0.1894795258277192 0  0.2584916480645116 0.1897170572385984 0  0.2537416622507333 0.1898380816465297 0  0.5657321255610495 0.06388782008928837 0  0.5707007887504887 0.07251420012612332 0  0.2589926542220146 0.2003936562336013 0  0.5193565176464719 0.09657013271057184 0  0.5408165679078885 0.08398598664742567 0  0.2774664956939448 0.1992248820568343 0  0.4944760399871763 0.1111427328062221 0  0.5070285240695606 0.1037374333026391 0  0.2941597818380023 0.1953630681080497 0  0.5531301146100713 0.07637154734455238 0  0.309866295894944 0.1929899028443241 0  0.335790553392541 0.1871324358409108 0  0.4818946809027023 0.1184930594112163 0  0.3529312581801419 0.1807315981819077 0  0.4692144062392875 0.1257740940745268 0  0.3674552607571338 0.1754758036433826 0  0.385234199086617 0.168295491474088 0  0.4558952851380271 0.1328362920836276 0  0.4431328308072889 0.1403096398744665 0  0.3985485775830296 0.16259307642 0  0.4122952396646502 0.1560697524463489 0  0.4294462596623734 0.1474996894975359 0  0.3194368072528631 0.1907796912948149 0  0.5323828433570957 0.08891926768966263 0  0.4198870519999987 0.1521826573348807 0  0.3449098972065472 0.1835839367546584 0  0.3774100276714936 0.1717006221097987 0  0.2859299163885282 0.197369076249701 0  0.5596848953274489 0.07110039968461167 0  0.2680827980994037 0.2009754770413363 0  0.450717324984217 0.1387568524514505 0  0.4764129565409659 0.1243367592443313 0  0.4890494959961845 0.117009706258329 0  0.3911533076579743 0.1633013586547827 0  0.4636454965160632 0.1315940105035722 0  0.5016146993520194 0.1096264938675117 0  0.4376304455359649 0.1457798472396988 0  0.5141797540081762 0.1022063836398874 0  0.4046327257939091 0.1572046522972731 0  0.3591489235231138 0.1761426309670203 0  0.3025538059241661 0.1922380374598362 0  0.5457752632080936 0.07856182512601043 0  0.524157888956208 0.09044638423804535 0  0.3278504759589279 0.1915128999364942 0  0.5257685306483646 0.09720924662560175 0  0.3280430798562728 0.184497493007362 0  0.5129762455155026 0.09588459186685816 0  0.5004079154379916 0.1033172243229127 0  0.4878608419222212 0.1106984345215237 0  0.5507067331572832 0.08274419894068581 0  0.3015564771951777 0.1986551971816687 0  0.4625555122458075 0.125229121933619 0  0.4752641434573049 0.1180059196401293 0  0.391584559493887 0.1697888497080995 0  0.3591546083479939 0.1826344885062175 0  0.445876840597863 0.1344366811087379 0  0.4367166342708436 0.1393420492298333 0  0.4052265139114239 0.1636817448301903 0  0.2557024937995341 0.1960189564289955 0  0.2550757188822008 0.2033895089873739 0  0.4276803261016237 0.1526495123434144 0  0.3697143510999477 0.1705328920160056 0  0.3378638527559673 0.181504760678422 0  0.2807288754926689 0.1940390364553383 0  0.2904822615963595 0.1926939220803869 0  0.4186374780829361 0.157364943731841 0  0.3468540682943101 0.1786268421951266 0  0.378999121624511 0.1666127816095735 0  0.3150423019014356 0.1878796943369536 0  0.5374876308721048 0.09029644726543486 0  0.5338956087734326 0.0835365073600203 0  0.3164195338138021 0.1954614580967507 0  0.2707002963724808 0.1950123248072837 0  0.5596061372588148 0.07858729447977428 0  0.4238008655813705 0.1452973369967843 0  0.4147810193559925 0.1502643620542697 0  0.3400597568508874 0.1899510440586305 0  0.2813437757144948 0.2027403542749984 0  0.2919478115020304 0.2012484530640811 0  0.3728556727059869 0.1782125851641622 0  0.349470355853679 0.1873346749038845 0  0.3822384780211768 0.1751327687702179 0  0.2645738459410361 0.1957082481311815 0  0.5653276627286451 0.07450845873872942 0  0.5077937755231999 0.09839558175302257 0  0.4952404180329809 0.1058128856451986 0  0.3073998503735258 0.1979598942045449 0  0.4826825103801156 0.1131670470067803 0  0.5459374849146031 0.08604390966181 0  0.4700491337557327 0.1204407222752214 0  0.4573255818916423 0.1275993073529333 0  0.36482
[...]
<PointData  Vectors="d"> 
<DataArray  type="Float64"  Name="d"  NumberOfComponents="3" format="ascii">-3.6752196004781613e-02 -1.3042530717913814e-01 0.0000000000000000e+00  -2.6815060858627501e-02 -1.3317171440462172e-01 0.0000000000000000e+00  0.0000000000000000e+00 0.0000000000000000e+00 0.0000000000000000e+00  0.0000000000000000e+00 0.0000000000000000e+00 0.0000000000000000e+00  -3.1783609192886642e-02 -1.3179878586089930e-01 0.0000000000000000e+00  0.0000000000000000e+00 0.0000000000000000e+00 0.0000000000000000e+00  0.0000000000000000e+00 0.0000000000000000e+00 0.0000000000000000e+00  0.0000000000000000e+00 0.0000000000000000e+00 0.0000000000000000e+00  0.0000000000000000e+00 0.0000000000000000e+00 0.0000000000000000e+00  1.7623767431779058e-04 -1.5654596378859219e-04 0.0000000000000000e+00  3.6857646089694449e-04 -3.2861289957174575e-04 0.0000000000000000e+00  5.5729871877308393e-04 -5.4844311545373405e-04 0.0000000000000000e+00  7.2967812815898103e-04 -9.1240097488413680e-04 0.0000000000000000e+00  8.8696609538053246e-04 -1.3553615161979774e-03 0.0000000000000000e+00  1.0419818479301358e-03 -1.9092895177130892e-03 0.0000000000000000e+00  1.1724029321607992e-03 -2.5209997117329975e-03 0.0000000000000000e+00  1.2745666798683296e-03 -3.2321993899062942e-03 0.0000000000000000e+00  1.3669479171874914e-03 -4.0231280884785899e-03 0.0000000000000000e+00  1.4362729449975201e-03 -4.8922781815275438e-03 0.0000000000000000e+00  1.4959658701192576e-03 -5.8677626008004340e-03 0.0000000000000000e+00  1.5509147855749406e-03 -6.8608746481675789e-03 0.0000000000000000e+00  1.5594189276288335e-03 -7.9682081511125730e-03 0.0000000000000000e+00  1.5780206171899238e-03 -9.1417394163869747e-03 0.0000000000000000e+00  1.5512078389489023e-03 -1.0368175062783222e-02 0.0000000000000000e+00  1.5096102591591392e-03 -1.1679547730125035e-02 0.0000000000000000e+00  1.4471715440801264e-03 -1.3038201002355920e-02 0.0000000000000000e+00  1.3567740372260942e-03 -1.4477670521513573e-02 0.0000000000000000e+00  1.2447262200402391e-03 -1.5949378048087409e-02 0.0000000000000000e+00  1.1115713256806780e-03 -1.7490790593559964e-02 0.0000000000000000e+00  9.5632152568800722e-04 -1.9079461943167546e-02 0.0000000000000000e+00  7.7779150476670153e-04 -2.0714853970117512e-02 0.0000000000000000e+00  5.8589122578923155e-04 -2.2430500046689037e-02 0.0000000000000000e+00  3.9045793983485244e-04 -2.4157469561821306e-02 0.0000000000000000e+00  1.6144034007802658e-04 -2.5952777980826899e-02 0.0000000000000000e+00  -8.5536880547138719e-05 -2.7776469405548034e-02 0.0000000000000000e+00  -3.5152156643576384e-04 -2.9652812073474512e-02 0.0000000000000000e+00  -6.3653222239798608e-04 -3.1566975833666418e-02 0.0000000000000000e+00  -9.4354487909071238e-04 -3.3516940266770975e-02 0.0000000000000000e+00  -1.2680522554663891e-03 -3.5531094334354460e-02 0.0000000000000000e+00  -1.5947627750702933e-03 -3.7552317215783747e-02 0.0000000000000000e+00  -1.9610815503838261e-03 -3.9625558314152411e-02 0.0000000000000000e+00  -2.3436683874074422e-03 -4.1746939252973569e-02 0.0000000000000000e+00  -2.7314213155849192e-03 -4.3879204385498097e-02 0.0000000000000000e+00  -3.1563811726918723e-03 -4.6060859908582608e-02 0.0000000000000000e+00  -3.5834935994615599e-03 -4.8271801128748112e-02 0.0000000000000000e+00  -4.0423301204277730e-03 -5.0510039256411558e-02 0.0000000000000000e+00  -4.5110294421867722e-03 -5.2785805719603986e-02 0.0000000000000000e+00  -5.0047339027395081e-03 -5.5078127660934659e-02 0.0000000000000000e+00  -5.5199307359542794e-03 -5.7398786947099142e-02 0.0000000000000000e+00  -6.0494567075926363e-03 -5.9739881886400781e-02 0.0000000000000000e+00  -6.5983872294973038e-03 -6.2102763327061106e-02 0.0000000000000000e+00  -7.1721610322651314e-03 -6.4481976015918763e-02 0.0000000000000000e+00  -7.7618921451230900e-03 -6.6876696400855723e-02 0.0000000000000000e+00  -8.3728642544983189e-03 -6.9287113912982382e-02 0.0000000000000000e+00  -9.0078434472522159e-03 -7.1707801900956006e-02 0.0000000000000000e+00  -9.6597666609676783e-03 -7.4138339546323664e-02 0.0000000000000000e+00  -1.0331702020007428e-02 -7.6578784603506672e-02 0.0000000000000000e+00  -1.1022975742731639e-02 -7.9024487016947878e-02 0.0000000000000000e+00  -1.1727661530860460e-02 -8.1476487962347702e-02 0.0000000000000000e+00  -1.2446996214264931e-02 -8.3934084307414156e-02 0.0000000000000000e+00  -1.3179266168613864e-02 -8.6394874898387375e-02 0.0000000000000000e+00  -1.3918392207319583e-02 -8.8859486275760943e-02 0.0000000000000000e+00  -1.4664851877625302e-02 -9.1326551824178120e-02 0.0000000000000000e+00  -1.5416453869109951e-02 -9.3795614277901257e-02 0.0000000000000000e+00  -1.6168164637037234e-02 -9.6266249888196931e-02 0.0000000000000000e+00  -1.6919590251717524e-02 -9.8736195116957207e-02 0.0000000000000000e+00  -1.7667920436631120e-02 -1.0120491855620838e-01 0.0000000000000000e+00  -1.8414233238003039e-02 -1.0367233782818504e-01 0.0000000000000000e+00  -1.9152921470298116e-02 -1.0614000587452554e-01 0.0000000000000000e+00  -1.9880102587733810e-02 -1.0860484859374329e-01 0.0000000000000000e+00  -2.0605210908402477e-02 -1.1106627186431563e-01 0.0000000000000000e+00  -2.1319324448573290e-02 -1.1352628446230348e-01 0.0000000000000000e+00  -2.2025173209780178e-02 -1.1598089530457327e-01 0.0000000000000000e+00  -2.2724090055481368e-02 -1.1843728342785055e-01 0.0000000000000000e+00  -2.3412828029258162e-02 -1.2089224530212085e-01 0.0000000000000000e+00  -2.4100025797655709e-02 -1.2334666059524647e-01 0.0000000000000000e+00  -2.4781114496983891e-02 -1.2580284520944282e-01 0.0000000000000000e+00  -2.5458639423335483e-02 -1.2825844783315390e-01 0.0000000000000000e+00  -2.6137269175201337e-02 -1.3071473092152253e-01 0.0000000000000000e+00  -3.6072382743159659e-02 -1.2796815641814971e-01 0.0000000000000000e+00  -3.5393169026499798e-02 -1.2550900637778117e-01 0.0000000000000000e+00  -3.4714636615973668e-02 -1.2304920923362890e-01 0.0000000000000000e+00  -3.4036061220818772e-02 -1.2058568821846030e-01 0.0000000000000000e+00  -3.3354359184249789e-02 -1.1811882999597298e-01 0.0000000000000000e+00  -3.2671768878590107e-02 -1.1564801195645968e-01 0.0000000000000000e+00  -3.1982360340536552e-02 -1.1317179521869243e-01 0.0000000000000000e+00  -3.1286919394056097e-02 -1.1068987098648871e-01 0.0000000000000000e+00  -3.0584576009960725e-02 -1.0820512895263856e-01 0.0000000000000000e+00  -2.9870964162452072e-02 -1.0571718827829307e-01 0.0000000000000000e+00  -2.9150620066555628e-02 -1.0322639452818527e-01 0.0000000000000000e+00  -2.8419015045305925e-02 -1.0073775021654330e-01 0.0000000000000000e+00  -2.7674821743796034e-02 -9.8251219719803842e-02 0.0000000000000000e+00  -2.6927488039746723e-02 -9.5763382463985150e-02 0.0000000000000000e+00  -2.6171452686955782e-02 -9.3283972103900839e-02 0.0000000000000000e+00  -2.5409387226251790e-02 -9.0813449755406409e-02 0.0000000000000000e+00  -2.4645278089743681e-02 -8.8345313955229807e-02 0.0000000000000000e+00  -2.3882182267120671e-02 -8.5889896858383108e-02 0.0000000000000000e+00  -2.3122819554186925e-02 -8.3447973692627464e-02 0.0000000000000000e+00  -2.2363407712338468e-02 -8.1011334371774421e-02 0.0000000000000000e+00  -2.1616549500290721e-02 -7.8588197423424655e-02 0.0000000000000000e+00  -2.0881885686881044e-02 -7.6180648107812013e-02 0.0000000000000000e+00  -2.0149309999543282e-02 -7.3779564104215628e-02 0.0000000000000000e+00  -1.9437625250789410e-02 -7.1391296983025779e-02 0.0000000000000000e+00  -1.8741549227676044e-02 -6.9020345289551657e-02 0.0000000000000000e+00  -1.8050921099097027e-02 -6.6657188976152706e-02 0.0000000000000000e+00  -1.7379132520175904e-02 -6.4308086160783567e-02 0.0000000000000000e+00  -1.6723910289750871e-02 -6.1980573610949302e-02 0.0000000000000000e+00  -1.6072100191515195e-02 -5.9656959534157693e-02 0.0000000000000000e+00  -1.5445422947737226e-02 -5.7352980355772402e-02 0.0000000000000000e+00  -1.4827659567744679e-02 -5.5083201065540696e-02 0.0000000000000000e+00  -1.4211244982074083e-02 -5.2820577208343010e-02 0.0000000000000000e+00  -1.3615842010070626e-02 -5.0591040037180360e-02 0.0000000000000000e+00  -1.3030696816693039e-02 -4.8377897114546320e-02 0.0000000000000000e+00  -1.2457439867826908e-02 -4.6197034001217677e-02 0.0000000000000000e+00  -1.1902716966271187e-02 -4.4055253034059667e-02 0.0000000000000000e+00  -1.1347755452625877e-02 -4.1938111964368419e-02 0.0000000000000000e+00  -1.0814591940478247e-02 -3.9860015432899562e-02 0.0000000000000000e+00  -1.0288668414617171e-02 -3.7817257570356574e-02 0.0000000000000000e+00  -9.7750733999067644e-03 -3.5814415605691430e-02 0.0000000000000000e+00  -9.2801482258550935e-03 -3.3851112858082080e-02 0.0000000000000000e+00  -8.8058807183686305e-03 -3.1915199451049911e-02 0.0000000000000000e+00  -8.3490020275000954e-03 -3.0022771580790242e-02 0.0000000000000000e+00  -7.8834718734425314e-03 -2.8167045737964920e-02 0.0000000000000000e+00  -7.4503841633150273e-03 -2.6354855049080327e-02 0.0000000000000000e+00  -7.0138239014323348e-03 -2.4596011434844758e-02 0.0000000000000000e+00  -6.6021231387092339e-03 -2.2868651555290703e-02 0.0000000000000000e+00  -6.1982748281832470e-03 -2.1200943514818785e-02 0.0000000000000000e+00  -5.8123840220346903e-03 -1.9566770275719722e-02 0.0000000000000000e+00  -5.4422970042152215e-03 -1.7990576657667189e-02 0.0000000000000000e+00  -5.0574573957381866e-03 -1.6460594200808736e-02 0.0000000000000000e+00  -4.7093999313166154e-03 -1.4987330113648407e-02 0.0000000000000000e+00  -4.3532456145897024e-03 -1.3584424064555550e-02 0.0000000000000000e+00  -4.0361840512683255e-03 -1.2226259731598185e-02 0.0000000000000000e+00  -3.7293162517077951e-03 -1.0954283793075831e-02 0.0000000000000000e+00  -3.4195167078039396e-03 -9.7018761050298996e-03 0.0000000000000000e+00  -3.1403518406106119e-03 -8.5390403752119547e-03 0.0000000000000000e+00  -2.8408154310732344e-03 -7.4414161524193291e-03 0.0000000000000000e+00  -2.5818092609767628e-03 -6.4009283619227671e-03 0.0000000000000000e+00  -2.3286735680603955e-03 -5.4529516239740280e-03 0.0000000000000000e+00  -2.0909398076535508e-03 -4.5545817119091708e-03 0.0000000000000000e+00  -1.8677557550579433e-03 -3.7451038298191618e-03 0.0000000000000000e+00  -1.6232144400667597e-03 -2.9980562832015029e-03 0.0000000000000000e+00  -1.4211883583917990e-03 -2.3309787807670665e-03 0.0000000000000000e+00  -1.1924330004616521e-03 -1.7476877333274608e-03 0.0000000000000000e+00  -9.9649827362590726e-04 -1.2614827527599808e-03 0.0000000000000000e+00  -7.7671488321111087e-04 -8.6012063503325843e-04 0.0000000000000000e+00  -5.7890112733274411e-04 -5.2047417228068911e-04 0.0000000000000000e+00  -3.8575824679747345e-04 -2.8294276140149882e-04 0.0000000000000000e+00  -1.9193835492469137e-04 -1.6191835347030263e-04 0.0000000000000000e+00  -3.4267874438950491e-02 -1.3111217991068994e-01 0.0000000000000000e+00  -2.9299211249511421e-02 -1.3248579987384956e-01 0.0000000000000000e+00  1.9227690365279918e-05 -1.5873310923904220e-04 0.0000000000000000e+00  -2.3789716738835578e-02 -1.0342986728939715e-01 0.0000000000000000e+00  -2.7423221568927503e-02 -1.1598447193347303e-01 0.0000000000000000e+00  1.5102982142442322e-05 -1.5693098853584169e-03 0.0000000000000000e+00  -1.9373543389720638e-02 -8.8759609842869833e-02 0.0000000000000000e+00  -2.1652476424177444e-02 -9.6164909346457730e-02 0.0000000000000000e+00  -3.5111336776232299e-04 -3.9281227324889393e-03 0.0000000000000000e+00  -2.9647968528421220e-02 -1.2317143275578253e-01 0.0000000000000000e+00  -5.4654376198156641e-04 -6.9805557365736461e-03 0.0000000000000000e+00  -1.2096221493140254e-03 -1.3697025402485935e-02 0.0000000000000000e+00  -1.7123485357343711e-02 -8.1409283237873872e-02 0.0000000000000000e+00  -2.3503593907626152e-03 -1.9268401818153192e-02 0.0000000000000000e+00  -1.4972342903905072e-02 -7.4128248574558131e-02 0.0000000000000000e+00  -3.2821106334213661e-03 -2.4538434051986382e-02 0.0000000000000000e+00  -4.6540584236325162e-03 -3.1704508525994816e-02 0.0000000000000000e+00  -1.3090469911246277e-02 -6.6705380342041820e-02 0.0000000000000000e+00  -1.1024900876907622e-02 -5.9690360125443202e-02 0.0000000000000000e+00  -5.8049138188034644e-03 -3.7504580930924389e-02 0.0000000000000000e+00  -7.2558520793066378e-03 -4.3930247553756893e-02 0.0000000000000000e+00  -9.2557182020777517e-03 -5.2486072807141265e-02 0.0000000000000000e+00  -8.1046777280725270e-04 -9.2291929198249686e-03 0.0000000000000000e+00  -2.6022510750989335e-02 -1.1107184809569509e-01 0.0000000000000000e+00  -8.1796626887147839e-03 -4.7666247485943433e-02 0.0000000000000000e+00  -1.8560974200002608e-03 -1.6567158424779030e-02 0.0000000000000000e+00  -3.9626068943971991e-03 -2.8450473069653311e-02 0.0000000000000000e+00  -1.3842130368164980e-04 -2.6724683209171183e-03 0.0000000000000000e+00  -3.1437485850670563e-02 -1.2714451625026271e-01 0.0000000000000000e+00  9.3481953541043252e-05 -6.9964860539275121e-04 0.0000000000000000e+00  -1.0856115258410825e-02 -6.3493510877349793e-02 0.0000000000000000e+00  -1.4823317935379379e-02 -7.7913604084477797e-02 0.0000000000000000e+00  -1.7018195597013945e-02 -8.5240657070482798e-02 0.0000000000000000e+00  -6.1506584107032048e-03 -3.4448278016413841e-02 0.0000000000000000e+00  -1.2759360843426378e-02 -7.0656352825232902e-02 0.0000000000000000e+00  -1.9284409358026181e-02 -9.2623869461306768e-02 0.0000000000000000e+00  -9.1115775898006970e-03 -5.6470516089101086e-02 0.0000000000000000e+00  -2.1550771818708535e-02 -1.0004397968893235e-01 0.0000000000000000e+00  -7.5026573916224292e-03 -4.0544984373924606e-02 0.0000000000000000e+00  -3.5484026062214289e-03 -2.1607005704171567e-02 0.0000000000000000e+00  -8.1785173773001811e-04 -5.5115992113506608e-03 0.0000000000000000e+00  -2.9505708263729374e-02 -1.1918781154513987e-01 0.0000000000000000e+00  -2.6301966962848047e-02 -1.0668209423572132e-01 0.0000000000000000e+00  -3.4229725575628164e-04 -1.1358621589746442e-02 0.0000000000000000e+00  -2.2649371401381506e-02 -1.0663107494387457e-01 0.0000000000000000e+00  -2.1916472277259233e-03 -1.1662185423187097e-02 0.0000000000000000e+00  -2.4944839708308714e-02 -1.0024058979755285e-01 0.0000000000000000e+00  -2.2681752668973605e-02 -9.2807957341493039e-02 0.0000000000000000e+00  -2.0397409067900926e-02 -8.5426747142886103e-02 0.0000000000000000e+00  -2.6764797711426033e-02 -1.2113061939490290e-01 0.0000000000000000e+00  3.7537893022291784e-04 -5.2196211539250184e-03 0.0000000000000000e+00  -1.6039904510603612e-02 -7.0896059730785083e-02 0.0000000000000000e+00  -1.8162690415962107e-02 -7.8119262024276909e-02 0.0000000000000000e+00  -3.5288471778760501e-03 -3.4085968627497076e-02 0.0000000000000000e+00  -1.3521583844178335e-03 -2.1240329829377496e-02 0.0000000000000000e+00  -1.3506040247851455e-02 -6.1688500555661337e-02 0.0000000000000000e+00  -1.2215948251836825e-02 -5.6783132434567403e-02 0.0000000000000000e+00  -4.7183098771981123e-03 -4.0193073505408766e-02 0.0000000000000000e+00  -8.3806180662951765e-05 -6.6880596733960690e-05 0.0000000000000000e+00  6.0982851261026397e-05 -5.3134011737530012e-05 0.0000000000000000e+00  -7.1228215448452476e-03 -5.1124245420741038e-02 0.0000000000000000e+00  -4.9218505084623288e-03 -2.5693350219849698e-02 0.0000000000000000e+00  -2.7619838304632827e-03 -1.4542031515566951e-02 0.0000000000000000e+00  -5.7129262631447591e-04 -2.0077557387118113e-03 0.0000000000000000e+00  -7.8637714762979792e-04 -3.3877107845413802e-03 0.0000000000000000e+00  -6.0330554990531736e-03 -4.6588264074113407e-02 0.0000000000000000e+00  -3.3081074386028682e-03 -1.7419949999061241e-02 0.0000000000000000e+00  -5.7696940477584280e-03 -2.9434010584662402e-02 0.0000000000000000e+00  -1.5900666369202906e-03 -8.2797642264163685e-03 0.0000000000000000e+00  -2.4667370233236219e-02 -1.1348520199446427e-01 0.0000000000000000e+00  -2.8545778928544461e-02 -1.1253968500111743e-01 0.0000000000000000e+00  1.8003023048930949e-04 -8.4064976457184620e-03 0.0000000000000000e+00  -3.8841704828137462e-04 -9.5731952530013758e-04 0.0000000000000000e+00  -2.7695300381545579e-02 -1.2613549362330803e-01 0.0000000000000000e+00  -1.0867091062900486e-02 -5.0167808958467001e-02 0.0000000000000000e+00  -9.5486310518060318e-03 -4.5611336039636498e-02 0.0000000000000000e+00  -1.9619423246497998e-04 -1.4843005970461801e-02 0.0000000000000000e+00  4.7528303840152177e-04 -2.0338875062672263e-03 0.0000000000000000e+00  5.4010818815809780e-04 -3.5324986430144228e-03 0.0000000000000000e+00  -1.9157199045062852e-03 -2.6322268880693174e-02 0.0000000000000000e+00  -4.5129303620755417e-04 -1.7840666414745968e-02 0.0000000000000000e+00  -2.2898108080529550e-03 -3.0042572548418064e-02 0.0000000000000000e+00  -2.4064060446921947e-04 -5.0072616745592950e-04 0.0000000000000000e+00  -2.8997101637644317e-02 -1.2953308362018878e-01 0.0000000000000000e+00  -2.4303485522414483e-02 -9.7248928152064582e-02 0.0000000000000000e+00  -2.2025425895791907e-02 -8.9831624259886750e-02 0.0000000000000000e+00  4.0752481326003628e-04 -6.3869091827101713e-03 0.0000000000000000e+00  -1.9751916431810908e-02 -8.2477462898306084e-02 0.0000000000000000e+00  -2.5722818658831848e-02 -1.1830289372546615e-01 0.0000000000000000e+00  -1.7553875939341365e-02 -7.5203787629861782e-02 0.0000000000000000e+00  -1.5489615637983990e-02 -6.8040939538056025e-02 0.0000000000000000e+00  -1.5018034212242223e-03 -2.3280157830529877e-02 0.0000000000000000e+00  -1.4474191278239363e-02 -6.4377196599495257e-02 0.0000000000000000e+00  -3.7900862820648973e-03 -3.6483542047189170e-02 0.0000000000000000e+00  -1.1762143536790112e-02 -5.4030495980916235e-02 0.0000000000000000e+00  -5.0295784647151291e-03 -4.2726128320425723e-02 0.0000000000000000e+00  -3.2072014585015192e-02 -1.2449650522484595e-01 0.0000000000000000e+00  -2.3193019817309393e-02 -1.0958776961410256e-01 0.0000000000000000e+00  -2.0766502584050649e-03 -1.0155804754047131e-02 0.0000000000000000e+00  3.9097534020509955e-04 -1.0672200672687368e-03 0.0000000000000000e+00  2.1245253931810747e-04 -4.0793506640556920e-04 0.0000000000000000e+00  -9.1415973772303160e-03 -6.1509004830893464e-02 0.0000000000000000e+00  -8.9219009459599475e-03 -4.2307074755148340e-02 0.0000000000000000e+00  -1.0967964014993293e-02 -6.8653152918393925e-02 0.0000000000000000e+00  -1.7399432202172698e-02 -9.0576952850253384e-02 0.0000000000000000e+00  -1.3010419756692570e-02 -7.5882222987299436e-02 0.0000000000000000e+00  -1.5156648902316808e-02 -8.3202769814553781e-02 0.0000000000000000e+00  -7.2471458042555953e-03 -3.6317910189040695e-02 0.0000000000000000e+00  -7.5645166036773575e-03 -5.4555653260536109e-02 0.0000000000000000e+00  -4.6232561586240428e-03 -2.3086432688069057e-02 0.0000000000000000e+00  -6.6926818694491731e-03 -3.2373738343613664e-02 0.0000000000000000e+00  -2.1067737175716698e-02 -1.0279337205925279e-01 0.0000000000000000e+00  -4.0352118395524418e-03 -1.9881344600289716e-02 0.0000000000000000e+00  -1.9990285867979921e-02 -9.7791971644069650e-02 0.0000000000000000e+00  -1.4034930337242966e-03 -6.3910702994344221e-03 0.0000000000000000e+00  -1.1285857722089874e-03 -4.5947994670117670e-03 0.0000000000000000e+00  -3.1207036416445767e-02 -1.2107287909439697e-01 0.0000000000000000e+00  -3.0037940563946451e-02 -1.1646866245774916e-01 0.0000000000000000e+00  -1.7150845420712296e-02 -8.8007906120073920e-02 0.0000000000000000e+00  -1.4927835877471249e-02 -8.0654278565492385e-02 0.0000000000000000e+00  -1.0722722810647766e-02 -6.6098634254906072e-02 0.0000000000000000e+00  -1.9281156536483917e-02 -9.5368915866993170e-02 0.0000000000000000e+00  -1.2820213716718515e-02 -7.3361551817187551e-02 0.0000000000000000e+00  -8.9046223214580937e-03 -5.9024062512253977e-02 0.0000000000000000e+00  -7.6724629296703135e-03 -3.8300443781173532e-02 0.0000000000000000e+00  2.4199038782677580e-04 -1.0210486657649778e-02 0.0000000000000000e+00  -2.7895555425110501e-02 -1.0878305598459422e-01 0.0000000000000000e+00  -2.6455135378660209e-02 -1.0408773637626263e-01 0.0000000000000000e+00  -2.