<?xml version="1.0"?>
<VTKFile type="UnstructuredGrid"  version="0.1"  >
<UnstructuredGrid>
<Piece  NumberOfPoints="439" NumberOfCells="725">
<Points>
<DataArray  type="Float64"  NumberOfComponents="3"  format="ascii">0.583248640187266 0.1053444877192518 0  0.5901786695383849 0.1244209485790548 0  0.2489897949 0.21 0  0.2489897949 0.19 0  0.5867134823458389 0.1148826722916944 0  0.2496355385699469 0.2060260530378829 0  0.249959460510575 0.2020130349814059 0  0.2499594605105767 0.1979869650186357 0  0.24963553856995 0.1939739469621422 0  0.2540503880898299 0.2098943569123593 0  0.2591191632711796 0.2097800987166742 0  0.2641846022013776 0.2096352001606633 0  0.2692391395732325 0.2094001980063532 0  0.2742835186007593 0.2091175273079382 0  0.2793265299539183 0.2087674118163891 0  0.2843546067049531 0.2083838429818003 0  0.2893664833789739 0.2079414671641818 0  0.2943736781443352 0.2074535255817066 0  0.2993690040276328 0.2069213621622467 0  0.3043616502228187 0.2063309442408711 0  0.3093515700985518 0.205731571081524 0  0.3143197017613931 0.2050688159145976 0  0.3192960688731736 0.2043712513550624 0  0.3242501916604274 0.2036443672082532 0  0.3292013988455164 0.202871492961493 0  0.3341445869083381 0.2020730912930362 0  0.3390788069863432 0.2012305742616631 0  0.3440039774921235 0.2003697134209121 0  0.3489235103201987 0.1994700037916127 0  0.3538350262760552 0.1985430005037866 0  0.3587377502271733 0.1975872465964135 0  0.3636384792846515 0.1965814556311511 0  0.3685401329310948 0.1955667619171876 0  0.373428054719445 0.1945046186076814 0  0.3783084313556813 0.1934201327307293 0  0.3831838727360862 0.1922960822843698 0  0.3880528629805907 0.1911422871400795 0  0.3929129306494201 0.1899585423650935 0  0.3977721542284113 0.1887262972614813 0  0.4026306223901587 0.1874870392674642 0  0.4074697652480338 0.1862040427715044 0  0.4123012817298199 0.1848824688498686 0  0.4171298354609311 0.1835498054783958 0  0.4219342564412453 0.1821754161139663 0  0.4267380959226394 0.1807732388799507 0  0.431517414948478 0.1793463863268596 0  0.4362907797441596 0.1778825092617945 0  0.4410430258604206 0.1764027729648776 0  0.4457787843855026 0.1748940220695455 0  0.4505048268181134 0.1733650970787957 0  0.4552172641324869 0.1718146572998667 0  0.4599099059504114 0.1702489254786264 0  0.4645932270220207 0.1686713110703959 0  0.4692632417792718 0.1670820414435208 0  0.4739162721174124 0.1654866485891959 0  0.4785608166163177 0.1638886032744455 0  0.4831953129419535 0.162287810990474 0  0.4878177127116577 0.1606868019422266 0  0.4924341870905231 0.1590873272650233 0  0.4970453705344784 0.1574882257519993 0  0.5016498949129651 0.1558884164093259 0  0.5062523195775179 0.1542881039006512 0  0.5108546011735614 0.1526857456376701 0  0.5154556685527807 0.1510790936918031 0  0.5200596241130835 0.1494682798893029 0  0.5246693654915282 0.1478518834607747 0  0.5292855892011591 0.14622823009566 0  0.5339092619377818 0.1445988235216243 0  0.5385429679211444 0.1429599144214458 0  0.5431896786077558 0.1413105680050072 0  0.5478444600886823 0.1396577800410983 0  0.5525165032208467 0.1379949786568009 0  0.5572026954899446 0.1363253824704851 0  0.5618969963433657 0.1346448044539764 0  0.5666036775458474 0.1329539131297095 0  0.571313872020915 0.1312587653535665 0  0.5760286768490883 0.1295547901401871 0  0.5807471811898943 0.1278449443315313 0  0.5854630913209253 0.12613411837924 0  0.5785331150258979 0.1070571514721907 0  0.5738180811961279 0.1087716837175493 0  0.5691023724342879 0.1104873110057435 0  0.5643920901467216 0.1122079711774726 0  0.5596894223008269 0.1139302752405344 0  0.5549962723341545 0.1156548344424694 0  0.5503189239274252 0.1173780768145219 0  0.5456570452072179 0.1191014820702397 0  0.5410114027114328 0.1208167740845436 0  0.5363839316105209 0.1225225265298407 0  0.5317709968605985 0.1242200366533333 0  0.5271720589314232 0.1259017906019759 0  0.522584091846038 0.1275663706987711 0  0.5180035652783768 0.1292243653187314 0  0.5134288986235523 0.1308646664925567 0  0.5088554509042925 0.1324892517993935 0  0.5042844820485927 0.1341065725331553 0  0.4997078444745932 0.1357124948844546 0  0.4951259231559795 0.1373090930158224 0  0.4905429134154033 0.1389013502904954 0  0.4859489263393083 0.1404897603854104 0  0.4813501777587838 0.1420729318119902 0  0.4767496742911737 0.1436557126863708 0  0.4721386684273038 0.1452345853039238 0  0.4675271600069106 0.1468035140457042 0  0.4629150280898396 0.148371556805323 0  0.458294911163232 0.1499281786903321 0  0.4536742704576414 0.151463112445873 0  0.4490535287203095 0.1529973189228478 0  0.4444171368642759 0.1545054143071732 0  0.4397787752934684 0.1559761996523389 0  0.4351415679877729 0.1574409508600804 0  0.4304852621131551 0.1588684427343448 0  0.4258193062010829 0.1602791664010191 0  0.4211405093739806 0.161659644147691 0  0.416444795234562 0.163007470006226 0  0.4117476705539059 0.1643363628916673 0  0.4070347200532531 0.1656356001239954 0  0.4023183967019066 0.1669103523140306 0  0.397596314447664 0.1681565374434653 0  0.3928663999337031 0.169373856533128 0  0.3881265893846866 0.170569390313431 0  0.3833823771993712 0.1717304387395296 0  0.3786486939531652 0.1728641130571364 0  0.3738983610294279 0.1739610760506738 0  0.3691529345748215 0.1750183891672713 0  0.3643919790137568 0.1760497226391508 0  0.3596264964976949 0.1770409210981326 0  0.3548488550781039 0.1780090436463828 0  0.3500621377877905 0.1789424159829217 0  0.3452843494914318 0.1798508009447765 0  0.3404879277709487 0.1807277535275653 0  0.3356995348500775 0.1815670874336133 0  0.3308938930431566 0.1823811129079185 0  0.3260880122157882 0.1831477054078039 0  0.3212853502949126 0.1839033679059858 0  0.3164708805554027 0.1846083364548931 0  0.3116700448007287 0.1852786677124391 0  0.3068499568950652 0.1859160945744066 0  0.3020309203201907 0.1865029582786344 0  0.2972062387354467 0.1870617515378813 0  0.292378176208996 0.1875702896894516 0  0.2875653334284579 0.1880434292834253 0  0.2827323355193264 0.1884677948413032 0  0.277918306921522 0.1888434569557885 0  0.2730883464409593 0.1891587318430337 0  0.2682761765028195 0.1894223691037659 0  0.2634530982125696 0.1896467452112769 0  0.2586296830223968 0.1898059462445789 0  0.2538091333186076 0.1898907891840295 0  0.5849810095672644 0.110113846808069 0  0.5884457808874549 0.1196512747511035 0  0.2589875126884494 0.2004392290930855 0  0.532858748972838 0.1344167552335685 0  0.5564562965761283 0.1258414948930859 0  0.2774744033285126 0.199761143075052 0  0.5055947781662337 0.1439881699345643 0  0.5193591219358162 0.1391393515661545 0  0.2943384969613666 0.1967688200040003 0  0.5701315509801789 0.1204126941473031 0  0.310185031316638 0.1955774903820107 0  0.3365660525316043 0.1924301479546647 0  0.4918135394647515 0.1487869764620724 0  0.3543846594546801 0.1883117679634274 0  0.4779801869881288 0.153572475733887 0  0.369497111317609 0.1852203570276023 0  0.3881284640959209 0.1808902126598841 0  0.4636247274602198 0.1581162326411706 0  0.4498059693331249 0.1632071183779383 0  0.4021818588585804 0.1774190239311826 0  0.4168298022575489 0.173310149889086 0  0.4351537977479589 0.1678694532256535 0  0.319917164327611 0.1942619774492209 0  0.5471679819011662 0.1292365120642219 0  0.4249635246089351 0.1708003591667634 0  0.3460550346344515 0.1900517220179113 0  0.3798844599138949 0.1830191123806051 0  0.2860088584622901 0.1983083691747576 0  0.5776380623564642 0.1162845677893733 0  0.2680540972673216 0.2012047792552475 0  0.457499724590994 0.1630043361593081 0  0.485320929092183 0.1534831996483245 0  0.4991339772050254 0.1486908486247981 0  0.3947719152890256 0.1769137527254493 0  0.4714462951084637 0.1582685700332566 0  0.5129100530188028 0.1438752525228057 0  0.443462598261865 0.1676050600419732 0  0.5266995775498454 0.1389960947240377 0  0.4090878788405034 0.1731299391106761 0  0.3611895655974899 0.1846564025070231 0  0.3029468446078692 0.1942435547369286 0  0.5623744139371802 0.1213009967527077 0  0.5387250699092326 0.129252377278135 0  0.3281979181925423 0.1958755911903995 0  0.539090711842972 0.1362438260091305 0  0.3291577308706524 0.1889304481353558 0  0.5266847642577546 0.1325489775810635 0  0.5129195942323173 0.1374631626394189 0  0.4991694948515687 0.142290337257161 0  0.5665738864716666 0.1263700932683805 0  0.3014749869094557 0.2005723783710311 0  0.4715408493986031 0.151844042987552 0  0.4853820110043537 0.1470756501714197 0  0.3941431859156497 0.183378108247481 0  0.3602695430070794 0.1910781228157242 0  0.453531234144877 0.1579356193484498 0  0.4437004795509036 0.161147679761349 0  0.4085774931009198 0.179602842825296 0  0.2557335330643754 0.1960359452986889 0  0.2550551506123663 0.2034024918496266 0  0.4325250061891302 0.1726067637560894 0  0.3724736551583975 0.1806872375779184 0  0.3393108533843862 0.1871009392017402 0  0.2809614929181983 0.1947279737501742 0  0.2908188728224653 0.1938898231080364 0  0.4228397062645777 0.1756715925315002 0  0.3486350260012987 0.1853990859021205 0  0.3822465752715052 0.1782510338686955 0  0.315813172201825 0.1909604645766535 0  0.5520048574180955 0.1315372181293871 0  0.549629605175751 0.1241524099120249 0  0.3164803373280844 0.1986376791372764 0  0.2708506854055857 0.1953281107641647 0  0.5762382998082696 0.1237842810801446 0  0.4300062535904919 0.1647325244115816 0  0.4202797482469047 0.1680389573512156 0  0.3404556631695513 0.1957578878540794 0  0.2811847473262853 0.2034525823477365 0  0.2917788427603233 0.2025209966923509 0  0.3744069208597919 0.1887446682140496 0  0.3500797064946057 0.1943855137224213 0  0.3841047806773192 0.1871617965692322 0  0.2646648366614592 0.1958679578793094 0  0.5827012146987123 0.1207037182128566 0  0.52111047699485 0.1340422579818684 0  0.5073616252469804 0.1389204329026691 0  0.3073275846578826 0.2003355158185059 0  0.4936030522468016 0.1437260086215694 0  0.5612105353353605 0.1288184925093258 0  0.4797958781392847 0.1485029809307232 0  0.4659759017267483 0.1532385788452427 0  0.366085398368753 0.19037675172
[...]
<PointData  Vectors="d"> 
<DataArray  type="Float64"  Name="d"  NumberOfComponents="3" format="ascii">-1.6751359812733881e-02 -8.4655512280748219e-02 0.0000000000000000e+00  -9.8213304616150791e-03 -8.5579051420945226e-02 0.0000000000000000e+00  0.0000000000000000e+00 0.0000000000000000e+00 0.0000000000000000e+00  0.0000000000000000e+00 0.0000000000000000e+00 0.0000000000000000e+00  -1.3286517654161343e-02 -8.5117327708305629e-02 0.0000000000000000e+00  0.0000000000000000e+00 0.0000000000000000e+00 0.0000000000000000e+00  0.0000000000000000e+00 0.0000000000000000e+00 0.0000000000000000e+00  0.0000000000000000e+00 0.0000000000000000e+00 0.0000000000000000e+00  0.0000000000000000e+00 0.0000000000000000e+00 0.0000000000000000e+00  1.1678748420071570e-04 -1.0564308764069087e-04 0.0000000000000000e+00  2.4175695992528963e-04 -2.1990128332579530e-04 0.0000000000000000e+00  3.6339018448553227e-04 -3.6479983933665488e-04 0.0000000000000000e+00  4.7412185070260090e-04 -5.9980199364678102e-04 0.0000000000000000e+00  5.7469517260241366e-04 -8.8247269206183452e-04 0.0000000000000000e+00  6.7390082014290222e-04 -1.2325881836108817e-03 0.0000000000000000e+00  7.5817186555936428e-04 -1.6161570181995851e-03 0.0000000000000000e+00  8.2624283395728239e-04 -2.0585328358182046e-03 0.0000000000000000e+00  8.8963189368304510e-04 -2.5464744182933144e-03 0.0000000000000000e+00  9.4115207136187182e-04 -3.0786378377533909e-03 0.0000000000000000e+00  9.8999256091899580e-04 -3.6690557591289694e-03 0.0000000000000000e+00  1.0361067310336975e-03 -4.2684289184759796e-03 0.0000000000000000e+00  1.0604326882564575e-03 -4.9311840854025218e-03 0.0000000000000000e+00  1.0929940944186466e-03 -5.6287486449376270e-03 0.0000000000000000e+00  1.1033111760541568e-03 -6.3556327917467861e-03 0.0000000000000000e+00  1.1107126555247044e-03 -7.1285070385070830e-03 0.0000000000000000e+00  1.1100950127174161e-03 -7.9269087069638207e-03 0.0000000000000000e+00  1.1005093851146879e-03 -8.7694257383369063e-03 0.0000000000000000e+00  1.0818741852658259e-03 -9.6302865790878819e-03 0.0000000000000000e+00  1.0576013077226850e-03 -1.0529996208387314e-02 0.0000000000000000e+00  1.0253115579607623e-03 -1.1456999496213423e-02 0.0000000000000000e+00  9.8422980346067460e-04 -1.2412753403586534e-02 0.0000000000000000e+00  9.4115315532049151e-04 -1.3418544368848791e-02 0.0000000000000000e+00  8.9900109614529905e-04 -1.4433238082812385e-02 0.0000000000000000e+00  8.4311717886627628e-04 -1.5495381392318579e-02 0.0000000000000000e+00  7.7968810949359860e-04 -1.6579867269270656e-02 0.0000000000000000e+00  7.1132378427402195e-04 -1.7703917715630242e-02 0.0000000000000000e+00  6.3650832315697789e-04 -1.8857712859920474e-02 0.0000000000000000e+00  5.5277028635687122e-04 -2.0041457634906487e-02 0.0000000000000000e+00  4.6818815974072425e-04 -2.1273702738518731e-02 0.0000000000000000e+00  3.8285061586025603e-04 -2.2512960732535871e-02 0.0000000000000000e+00  2.7818776812297939e-04 -2.3795957228495562e-02 0.0000000000000000e+00  1.6589854428886793e-04 -2.5117531150131395e-02 0.0000000000000000e+00  5.0646569779270798e-05 -2.6450194521604183e-02 0.0000000000000000e+00  -8.8738155518256059e-05 -2.7824583886033677e-02 0.0000000000000000e+00  -2.2870437975250918e-04 -2.9226761120049221e-02 0.0000000000000000e+00  -3.9319105954702447e-04 -3.0653613673140425e-02 0.0000000000000000e+00  -5.6363196951769430e-04 -3.2117490738205509e-02 0.0000000000000000e+00  -7.5519155891224396e-04 -3.3597227035122378e-02 0.0000000000000000e+00  -9.6323873949432216e-04 -3.5105977930454446e-02 0.0000000000000000e+00  -1.1810020125311055e-03 -3.6634902921204325e-02 0.0000000000000000e+00  -1.4123704037996595e-03 -3.8185342700133434e-02 0.0000000000000000e+00  -1.6635342915045917e-03 -3.9751074521373574e-02 0.0000000000000000e+00  -1.9240189255458567e-03 -4.1328688929604118e-02 0.0000000000000000e+00  -2.1978098739280816e-03 -4.2917958556479154e-02 0.0000000000000000e+00  -2.4885852414543302e-03 -4.4513351410804057e-02 0.0000000000000000e+00  -2.7878464481956699e-03 -4.6111396725554497e-02 0.0000000000000000e+00  -3.0971558282225642e-03 -4.7712189009526042e-02 0.0000000000000000e+00  -3.4185617641488259e-03 -4.9313198057773441e-02 0.0000000000000000e+00  -3.7458930909379396e-03 -5.0912672734976641e-02 0.0000000000000000e+00  -4.0785153526110059e-03 -5.2511774248000707e-02 0.0000000000000000e+00  -4.4177966797841039e-03 -5.4111583590674112e-02 0.0000000000000000e+00  -4.7591777208696260e-03 -5.5711896099348748e-02 0.0000000000000000e+00  -5.1007018304424778e-03 -5.7314254362329960e-02 0.0000000000000000e+00  -5.4434401568606312e-03 -5.8920906308196949e-02 0.0000000000000000e+00  -5.7832903022170899e-03 -6.0531720110696983e-02 0.0000000000000000e+00  -6.1173546294109151e-03 -6.2148116539225348e-02 0.0000000000000000e+00  -6.4449366254394425e-03 -6.3771769904340039e-02 0.0000000000000000e+00  -6.7650695944548823e-03 -6.5401176478375622e-02 0.0000000000000000e+00  -7.0751693167085631e-03 -6.7040085578554093e-02 0.0000000000000000e+00  -7.3722643357350352e-03 -6.8689431994992847e-02 0.0000000000000000e+00  -7.6612885604636109e-03 -7.0342219958901622e-02 0.0000000000000000e+00  -7.9330511339418801e-03 -7.2005021343199180e-02 0.0000000000000000e+00  -8.1906645705036585e-03 -7.3674617529514791e-02 0.0000000000000000e+00  -8.4401694227458010e-03 -7.5355195546023587e-02 0.0000000000000000e+00  -8.6772939258985965e-03 -7.7046086870290548e-02 0.0000000000000000e+00  -8.9109051564686022e-03 -7.8741234646433553e-02 0.0000000000000000e+00  -9.1399060339457938e-03 -8.0445209859812933e-02 0.0000000000000000e+00  -9.3652073987865372e-03 -8.2155055668468702e-02 0.0000000000000000e+00  -9.5931029734152348e-03 -8.3865881620760002e-02 0.0000000000000000e+00  -1.6523079268485088e-02 -8.2942848527809226e-02 0.0000000000000000e+00  -1.6294307392630214e-02 -8.1228316282450669e-02 0.0000000000000000e+00  -1.6066210448831393e-02 -7.9512688994256481e-02 0.0000000000000000e+00  -1.5832687030751039e-02 -7.7792028822527420e-02 0.0000000000000000e+00  -1.5591549171024625e-02 -7.6069724759465579e-02 0.0000000000000000e+00  -1.5340893432076820e-02 -7.4345165557530651e-02 0.0000000000000000e+00  -1.5074436133192965e-02 -7.2621923185478152e-02 0.0000000000000000e+00  -1.4792509147770765e-02 -7.0898517929760249e-02 0.0000000000000000e+00  -1.4494345937925143e-02 -6.9183225915456392e-02 0.0000000000000000e+00  -1.4178011333182755e-02 -6.7477473470159324e-02 0.0000000000000000e+00  -1.3847140377505894e-02 -6.5779963346666664e-02 0.0000000000000000e+00  -1.3502272601081736e-02 -6.4098209398024131e-02 0.0000000000000000e+00  -1.3146433980858015e-02 -6.2433629301228991e-02 0.0000000000000000e+00  -1.2783154842886101e-02 -6.0775634681268606e-02 0.0000000000000000e+00  -1.2414015792110357e-02 -5.9135333507443301e-02 0.0000000000000000e+00  -1.2043657805731960e-02 -5.7510748200606428e-02 0.0000000000000000e+00  -1.1670820955829161e-02 -5.5893427466844718e-02 0.0000000000000000e+00  -1.1303652824229496e-02 -5.4287505115545379e-02 0.0000000000000000e+00  -1.0941768437238200e-02 -5.2690906984177631e-02 0.0000000000000000e+00  -1.0580972472177092e-02 -5.1098649709504652e-02 0.0000000000000000e+00  -1.0231153842663656e-02 -4.9510239614589585e-02 0.0000000000000000e+00  -9.8860967175693586e-03 -4.7927068188009812e-02 0.0000000000000000e+00  -9.5427944795606588e-03 -4.6344287313629128e-02 0.0000000000000000e+00  -9.2099946378006829e-03 -4.4765414696076242e-02 0.0000000000000000e+00  -8.8776973525859938e-03 -4.3196485954295684e-02 0.0000000000000000e+00  -8.5460235640286934e-03 -4.1628443194676977e-02 0.0000000000000000e+00  -8.2223347850234538e-03 -4.0071821309667827e-02 0.0000000000000000e+00  -7.8991697849935000e-03 -3.8536887554126931e-02 0.0000000000000000e+00  -7.5761058167007553e-03 -3.7002681077152190e-02 0.0000000000000000e+00  -7.2686919671049116e-03 -3.5494585692826763e-02 0.0000000000000000e+00  -6.9632478323033119e-03 -3.4023800347661066e-02 0.0000000000000000e+00  -6.6566494323737103e-03 -3.2559049139919666e-02 0.0000000000000000e+00  -6.3691496013746109e-03 -3.1131557265655301e-02 0.0000000000000000e+00  -6.0912998078301644e-03 -2.9720833598980815e-02 0.0000000000000000e+00  -5.8262909293060276e-03 -2.8340355852308995e-02 0.0000000000000000e+00  -5.5781993630862501e-03 -2.6992529993774071e-02 0.0000000000000000e+00  -5.3315183380997257e-03 -2.5663637108332724e-02 0.0000000000000000e+00  -5.1006631331061963e-03 -2.4364399876004601e-02 0.0000000000000000e+00  -4.8731807787929984e-03 -2.3089647685969428e-02 0.0000000000000000e+00  -4.6514573273838096e-03 -2.1843462556534684e-02 0.0000000000000000e+00  -4.4375661356871599e-03 -2.0626143466872041e-02 0.0000000000000000e+00  -4.2335709790680288e-03 -1.9430609686569011e-02 0.0000000000000000e+00  -4.0339774587371110e-03 -1.8269561260470475e-02 0.0000000000000000e+00  -3.8238549993169792e-03 -1.7135886942863561e-02 0.0000000000000000e+00  -3.6303822173979891e-03 -1.6038923949326132e-02 0.0000000000000000e+00  -3.4320029663557801e-03 -1.4981610832728733e-02 0.0000000000000000e+00  -3.2491528217516337e-03 -1.3950277360849247e-02 0.0000000000000000e+00  -3.0708296321665983e-03 -1.2959078901867409e-02 0.0000000000000000e+00  -2.9046653461069212e-03 -1.1990956353617101e-02 0.0000000000000000e+00  -2.7475769307985275e-03 -1.1057584017078426e-02 0.0000000000000000e+00  -2.5815595214991167e-03 -1.0149199055223587e-02 0.0000000000000000e+00  -2.4341755363432149e-03 -9.2722464724346986e-03 0.0000000000000000e+00  -2.2787627515761227e-03 -8.4329125663866657e-03 0.0000000000000000e+00  -2.1405988528584901e-03 -7.6188870920814574e-03 0.0000000000000000e+00  -2.0026739745867099e-03 -6.8522945921960553e-03 0.0000000000000000e+00  -1.8615301898045834e-03 -6.0966320940141691e-03 0.0000000000000000e+00  -1.7321942236562687e-03 -5.3916635451068803e-03 0.0000000000000000e+00  -1.5892242726724464e-03 -4.7213322875610505e-03 0.0000000000000000e+00  -1.4655064726929246e-03 -4.0839054255934343e-03 0.0000000000000000e+00  -1.3407373419287523e-03 -3.4970417213655331e-03 0.0000000000000000e+00  -1.2216132210345467e-03 -2.9382484621187726e-03 0.0000000000000000e+00  -1.1058700418470845e-03 -2.4297103105483820e-03 0.0000000000000000e+00  -9.7490711672942323e-04 -1.9565707165747062e-03 0.0000000000000000e+00  -8.6409932020312954e-04 -1.5322051586968081e-03 0.0000000000000000e+00  -7.3432221234967065e-04 -1.1565430442115803e-03 0.0000000000000000e+00  -6.2047698726513533e-04 -8.4126815696632757e-04 0.0000000000000000e+00  -4.8884121976650681e-04 -5.7763089623419079e-04 0.0000000000000000e+00  -3.6811380437803037e-04 -3.5325478872305925e-04 0.0000000000000000e+00  -2.4772328891224573e-04 -1.9405375542101615e-04 0.0000000000000000e+00  -1.2446728705038787e-04 -1.0921081597042229e-04 0.0000000000000000e+00  -1.5018990432735692e-02 -8.4886153191909328e-02 0.0000000000000000e+00  -1.1554219112545134e-02 -8.5348725248869398e-02 0.0000000000000000e+00  1.4086156800157402e-05 -1.1316024975481861e-04 0.0000000000000000e+00  -1.0287485412469318e-02 -6.5583244766400497e-02 0.0000000000000000e+00  -1.1783492900687729e-02 -7.4128963687812813e-02 0.0000000000000000e+00  2.3010616710285316e-05 -1.0330488671406539e-03 0.0000000000000000e+00  -8.2548052106632772e-03 -5.5914172714527567e-02 0.0000000000000000e+00  -9.3218785579218220e-03 -6.0762991082942280e-02 0.0000000000000000e+00  -1.7239824439810355e-04 -2.5223708365382852e-03 0.0000000000000000e+00  -1.2646532158313699e-02 -7.9130285953031773e-02 0.0000000000000000e+00  -2.2780834028743600e-04 -4.3929681988870957e-03 0.0000000000000000e+00  -4.3412301025075182e-04 -8.3993132887320836e-03 0.0000000000000000e+00  -7.2046267952944132e-03 -5.1115366187017758e-02 0.0000000000000000e+00  -8.9695811622431229e-04 -1.1688232036633437e-02 0.0000000000000000e+00  -6.2065621550637289e-03 -4.6329866915197929e-02 0.0000000000000000e+00  -1.2402600729460866e-03 -1.4793880667766657e-02 0.0000000000000000e+00  -1.7597934143285554e-03 -1.9109787340198730e-02 0.0000000000000000e+00  -5.3610275890536244e-03 -4.1425439784498849e-02 0.0000000000000000e+00  -4.3517623510716773e-03 -3.6792881621971370e-02 0.0000000000000000e+00  -2.1716325432527632e-03 -2.2678633419741776e-02 0.0000000000000000e+00  -2.7212894864079109e-03 -2.6689850111019753e-02 0.0000000000000000e+00  -3.5481801164922405e-03 -3.2116309079023721e-02 0.0000000000000000e+00  -3.3011069805925878e-04 -5.7469067654189803e-03 0.0000000000000000e+00  -1.1237372206918870e-02 -7.0754603721135803e-02 0.0000000000000000e+00  -3.1031900797784183e-03 -2.9048545654060683e-02 0.0000000000000000e+00  -7.1095999209586471e-04 -1.0099373161526079e-02 0.0000000000000000e+00  -1.4881746519957975e-03 -1.7131982798846857e-02 0.0000000000000000e+00  -5.9479229919767115e-05 -1.7331753958605646e-03 0.0000000000000000e+00  -1.3484318821655440e-02 -8.1960348145501058e-02 0.0000000000000000e+00  6.4781121458923934e-05 -4.7034639148156305e-04 0.0000000000000000e+00  -4.0737156516337724e-03 -3.9246027169492242e-02 0.0000000000000000e+00  -5.9153453841622591e-03 -4.8767163680484615e-02 0.0000000000000000e+00  -6.9337143881729926e-03 -5.3559514704013711e-02 0.0000000000000000e+00  -2.5320507796519837e-03 -2.0835883945747220e-02 0.0000000000000000e+00  -4.9585622510258899e-03 -4.3981793295548494e-02 0.0000000000000000e+00  -7.9890556912428357e-03 -5.8375110806012799e-02 0.0000000000000000e+00  -3.2794248639005522e-03 -3.4645303286826780e-02 0.0000000000000000e+00  -9.0309482770393572e-03 -6.3254268604782143e-02 0.0000000000000000e+00  -3.0475043450281175e-03 -2.4619697560521615e-02 0.0000000000000000e+00  -1.5077605318453030e-03 -1.3093234164168804e-02 0.0000000000000000e+00  -4.2481305402681472e-04 -3.5060819342581919e-03 0.0000000000000000e+00  -1.2906557534642709e-02 -7.6448639918442557e-02 0.0000000000000000e+00  -1.1734786009823505e-02 -6.7876101195631713e-02 0.0000000000000000e+00  5.1449778582053604e-06 -6.9959303358411258e-03 0.0000000000000000e+00  -9.3271902067740727e-03 -6.7596495560345804e-02 0.0000000000000000e+00  -1.0769962133463636e-03 -7.2292302951932463e-03 0.0000000000000000e+00  -1.1236320966056701e-02 -6.3576204083347507e-02 0.0000000000000000e+00  -1.0170073874647786e-02 -5.8662019024986904e-02 0.0000000000000000e+00  -9.0887561385534308e-03 -5.3834844407248790e-02 0.0000000000000000e+00  -1.0897644397042531e-02 -7.7504725067208236e-02 0.0000000000000000e+00  2.9388864450097767e-04 -3.3024399645626475e-03 0.0000000000000000e+00  -7.0545673578079953e-03 -4.4281138676852017e-02 0.0000000000000000e+00  -8.0448228689133233e-03 -4.9049531492986548e-02 0.0000000000000000e+00  -9.7022075611331990e-04 -2.0496710088115599e-02 0.0000000000000000e+00  -2.3722372533240200e-04 -1.2796695519870850e-02 0.0000000000000000e+00  -5.8516467008374535e-03 -3.8189562315949457e-02 0.0000000000000000e+00  -5.2321029717767985e-03 -3.4977501903051697e-02 0.0000000000000000e+00  -1.3673306877022618e-03 -2.4271975510303006e-02 0.0000000000000000e+00  -5.2766915821718702e-05 -4.9891727040624299e-05 0.0000000000000000e+00  4.0414581426535406e-05 -4.0151149484898373e-05 0.0000000000000000e+00  -2.2781414573387142e-03 -3.1166994008066055e-02 0.0000000000000000e+00  -2.1625464500124657e-03 -1.5539004657936896e-02 0.0000000000000000e+00  -1.3149832020444682e-03 -8.9458529922487266e-03 0.0000000000000000e+00  -3.3867520078505073e-04 -1.3188184438759133e-03 0.0000000000000000e+00  -4.4976592152392756e-04 -2.1918097568918329e-03 0.0000000000000000e+00  -1.8308273174115030e-03 -2.8281615274454219e-02 0.0000000000000000e+00  -1.5271497316142958e-03 -1.0647706292067273e-02 0.0000000000000000e+00  -2.5222404007641669e-03 -1.7795758325540430e-02 0.0000000000000000e+00  -8.1919633653099329e-04 -5.1989939867164280e-03 0.0000000000000000e+00  -1.0150143687245729e-02 -7.2244431130512002e-02 0.0000000000000000e+00  -1.2811782526225989e-02 -7.1923782449112794e-02 0.0000000000000000e+00  2.4083374477155126e-04 -5.2302766051927248e-03 0.0000000000000000e+00  -2.3802801517648417e-04 -6.4153356841908221e-04 0.0000000000000000e+00  -1.1063137832090878e-02 -8.0938507022937742e-02 0.0000000000000000e+00  -4.6617030537790642e-03 -3.0732621543669725e-02 0.0000000000000000e+00  -4.0499021608938184e-03 -2.7836740742690588e-02 0.0000000000000000e+00  1.9971208619894550e-04 -9.0361621750129472e-03 0.0000000000000000e+00  3.1625465019209274e-04 -1.3216594335291305e-03 0.0000000000000000e+00  3.7113944645100966e-04 -2.2599550147446444e-03 0.0000000000000000e+00  -3.6447175070123105e-04 -1.5790185830805822e-02 0.0000000000000000e+00  1.5805760471908771e-04 -1.0789827596209216e-02 0.0000000000000000e+00  -4.2350815191052654e-04 -1.8013544749403722e-02 0.0000000000000000e+00  -1.4964988404618483e-04 -3.4101641932805338e-04 0.0000000000000000e+00  -1.1623549667577100e-02 -8.3337824146061626e-02 0.0000000000000000e+00  -1.0986784050764281e-02 -6.1602251923218748e-02 0.0000000000000000e+00  -9.9042186817923580e-03 -5.6724077002416336e-02 0.0000000000000000e+00  3.3525909761685771e-04 -4.0112875687492349e-03 0.0000000000000000e+00  -8.8313745651248249e-03 -5.1918501283516980e-02 0.0000000000000000e+00  -1.0449768238074380e-02 -7.5528310877950353e-02 0.0000000000000000e+00  -7.8071315557893903e-03 -4.7141528974360004e-02 0.0000000000000000e+00  -6.8392958028779989e-03 -4.2401668045746722e-02 0.0000000000000000e+00  -2.4477928400084821e-04 -1.3990703135677506e-02 0.0000000000000000e+00  -6.3539591716920705e-03 -3.9975190232140530e-02 0.0000000000000000e+00  -1.0047636810632450e-03 -2.1963537432720667e-02 0.0000000000000000e+00  -5.0607519216309535e-03 -3.3205781036936721e-02 0.0000000000000000e+00  -1.4199167165777776e-03 -2.5843992200923691e-02 0.0000000000000000e+00  -1.4154687906963294e-02 -8.0241397402340930e-02 0.0000000000000000e+00  -9.4741694342146132e-03 -6.9567748185052736e-02 0.0000000000000000e+00  -1.0544858913267671e-03 -6.3319190706508863e-03 0.0000000000000000e+00  2.5652219396497805e-04 -7.0576677342934230e-04 0.0000000000000000e+00  1.3947206858834878e-04 -2.7732159515260284e-04 0.0000000000000000e+00  -3.0686515093306076e-03 -3.7891776367776665e-02 0.0000000000000000e+00  -3.8260502908894988e-03 -2.5770425253194413e-02 0.0000000000000000e+00  -3.9029384893658823e-03 -4.2605789824378196e-02 0.0000000000000000e+00  -6.8903707249890304e-03 -5.6976260471096669e-02 0.0000000000000000e+00  -4.8558937795335280e-03 -4.7378348088854348e-02 0.0000000000000000e+00  -5.8499503350906389e-03 -5.2172429485888391e-02 0.0000000000000000e+00  -3.1042917944952139e-03 -2.2024332553387628e-02 0.0000000000000000e+00  -2.3911514386169229e-03 -3.3360447582733023e-02 0.0000000000000000e+00  -2.0820187268388813e-03 -1.3997376729444230e-02 0.0000000000000000e+00  -2.9510533836025086e-03 -1.9605568090408660e-02 0.0000000000000000e+00  -8.5469453282080617e-03 -6.5001350891536233e-02 0.0000000000000000e+00  -1.8572916145532081e-03 -1.2107266751272060e-02 0.0000000000000000e+00  -8.1531979911666844e-03 -6.1717630732746276e-02 0.0000000000000000e+00  -7.5691565041058220e-04 -4.0546118967409736e-03 0.0000000000000000e+00  -6.3423021450548570e-04 -2.9483832818963033e-03 0.0000000000000000e+00  -1.3884064345392641e-02 -7.7864131066512493e-02 0.0000000000000000e+00  -1.3495682335315441e-02 -7.4672548131804517e-02 0.0000000000000000e+00  -6.8704051304529666e-03 -5.5328676939799391e-02 0.0000000000000000e+00  -5.8388393628799511e-03 -5.0531543826264201e-02 0.0000000000000000e+00  -3.8670236744244727e-03 -4.0933430714569785e-02 0.0000000000000000e+00  -7.8339762941873267e-03 -6.0127627045039413e-02 0.0000000000000000e+00  -4.8627580788371868e-03 -4.5739365037507716e-02 0.0000000000000000e+00  -3.0307194723896125e-03 -3.6277588063460216e-02 0.0000000000000000e+00  -3.2644685904159886e-03 -2.3254203352150872e-02 0.0000000000000000e+00  3.2075895553986201e-04 -6.3004142170829027e-03 0.0000000000000000e+00  -1.2651651130756081e-02 -6.9376309899492894e-02 0.0000000000000000e+00  -1.2003366969091517e-02 -6.6180652052611713e-02 0.0000000000000000e+00  2.3364671027996