<?xml version="1.0"?>
<VTKFile type="UnstructuredGrid"  version="0.1"  >
<UnstructuredGrid>
<Piece  NumberOfPoints="439" NumberOfCells="725">
<Points>
<DataArray  type="Float64"  NumberOfComponents="3"  format="ascii">0.5737618567021864 0.0747388754373885 0  0.5827404439897654 0.09268317204245895 0  0.2489897949 0.21 0  0.2489897949 0.19 0  0.5782511575226635 0.08371108702073073 0  0.2496355385699469 0.2060260530378829 0  0.249959460510575 0.2020130349814059 0  0.2499594605105767 0.1979869650186357 0  0.24963553856995 0.1939739469621422 0  0.2540853672126889 0.2098670848213925 0  0.2591957706481346 0.2097207457575751 0  0.2643038570133692 0.2095340238207166 0  0.2693998917282767 0.2092223489245227 0  0.2744845330568213 0.2088425038724438 0  0.279570231411552 0.2083665092477838 0  0.2846362507406753 0.2078404315235908 0  0.2896810880261615 0.2072268893248965 0  0.2947206709094434 0.2065437661404683 0  0.2997434309616893 0.2057916360151964 0  0.3047625438210089 0.2049458951296764 0  0.3097784916202819 0.2040847548894316 0  0.3147590034412508 0.2031206691806069 0  0.319752204600013 0.2020981998017502 0  0.3247078825156564 0.2010267065634435 0  0.3296551556470504 0.1998787805878718 0  0.3345864268760402 0.1986878927513416 0  0.3394973239403986 0.1974237503630661 0  0.3443902685673698 0.1961299902307776 0  0.3492677794292841 0.1947735390677278 0  0.354127422915324 0.1933743249689492 0  0.3589680032600837 0.1919330932260807 0  0.3637980806590416 0.1904210765652561 0  0.3686250203669705 0.1888985641604648 0  0.3734235613565666 0.1873149620177734 0  0.3782066864348834 0.1857062403118084 0  0.3829739347215367 0.1840511888524656 0  0.3877252607551603 0.182363268338488 0  0.3924585879242042 0.1806446622916778 0  0.3971794462433496 0.1788732456825823 0  0.4018978802457953 0.1770966221122022 0  0.4065864454921424 0.1752771922243684 0  0.411263962110445 0.1734212759591736 0  0.4159374817992544 0.17155711085566 0  0.420585259899979 0.1696549754588889 0  0.4252322571820269 0.1677315889578941 0  0.4298581712936507 0.1657869710150026 0  0.4344794513193242 0.1638144957390068 0  0.4390846717450775 0.1618286424923345 0  0.4436778101427082 0.159820139598495 0  0.4482645623143839 0.1577953291538879 0  0.4528421783154815 0.1557521127315867 0  0.4574064759875394 0.1536938105750522 0  0.4619653224783341 0.1516215369169852 0  0.4665154800092013 0.1495335426063306 0  0.4710541178462885 0.1474332334055257 0  0.47558696513687 0.145321581916193 0  0.4801120712585708 0.14319694751002 0  0.4846276024040069 0.1410631251570898 0  0.4891377343910775 0.1389199676044228 0  0.4936410541999087 0.1367663596589201 0  0.4981360097659988 0.1346053639349228 0  0.5026260852576272 0.1324368306277066 0  0.5071100973257984 0.1302599469434344 0  0.5115869609655808 0.128077408999142 0  0.5160597879365167 0.1258885824604338 0  0.5205274473101767 0.1236935046148108 0  0.5249898183693629 0.1214937171588987 0  0.5294477686997354 0.1192906702969769 0  0.5339005576067225 0.1170832083148805 0  0.5383497268206935 0.1148712302003274 0  0.5427980610744887 0.1126586109568993 0  0.5472416331711987 0.1104424292978291 0  0.5516840493521876 0.1082241048530903 0  0.5561237592001047 0.1060052170752216 0  0.5605614079767737 0.1037847558168659 0  0.564998487395604 0.1015644485670773 0  0.5694342415382861 0.09934383951669973 0  0.5738695920132255 0.09712313149074084 0  0.5783050726906677 0.0949030556734778 0  0.5693264869352814 0.0769582340959705 0  0.564891708927949 0.07917761738990121 0  0.5604574687200001 0.08139712899894573 0  0.5560238758037368 0.08361613262996505 0  0.5515905506671549 0.0858340513757242 0  0.5471578062990362 0.08805123808741719 0  0.5427249006018027 0.09026592537227324 0  0.5382924379261262 0.0924777759464796 0  0.5338591287800006 0.09468775277289306 0  0.5294248350238171 0.0968929345522401 0  0.5249902046280258 0.09909533178760392 0  0.520552528359092 0.1012926523233351 0  0.516112890937598 0.1034828258073221 0  0.5116739028490251 0.1056708400552777 0  0.5072295718885406 0.1078512108621917 0  0.5027823446282131 0.1100219700380663 0  0.4983353369247409 0.1121899757643242 0  0.4938808626276092 0.1143483674792663 0  0.4894231571856202 0.1164953234114362 0  0.4849655492003397 0.1186390582018232 0  0.4804990385862902 0.1207709320288554 0  0.4760292086262083 0.1228891318765647 0  0.4715595019594348 0.125003586063193 0  0.4670797274992437 0.1271034759980323 0  0.4625968390225019 0.129186536233719 0  0.4581133629133243 0.1312635244954163 0  0.4536216675678513 0.1333245160326022 0  0.4491256334721322 0.1353641375876205 0  0.4446286645546675 0.1373997390317374 0  0.4401182587333106 0.1394136421777503 0  0.4356062384113085 0.1413990137395787 0  0.4310946555694682 0.1433777895106683 0  0.4265709829964153 0.1453281174262902 0  0.4220409319331573 0.1472641429941647 0  0.4175043533805676 0.1491748845150149 0  0.4129561784856404 0.1510550178259464 0  0.408410006856868 0.1529164594933966 0  0.4038500703617382 0.1547471917962898 0  0.3992872744586197 0.1565500821121276 0  0.3947179105227289 0.1583207810901819 0  0.3901369016780645 0.1600583355413257 0  0.3855417435745287 0.1617722470613787 0  0.3809350639512226 0.1634484049266601 0  0.3763376129828888 0.1650933051587472 0  0.3717148087664651 0.1666985158162373 0  0.3670966812570284 0.1682574364924294 0  0.3624579237995318 0.1697874982803036 0  0.3578134745569681 0.1712653069639366 0  0.3531543622641478 0.1727133268668188 0  0.3484832484933441 0.1741107393575888 0  0.3438268160436362 0.1754690749008438 0  0.339141133485862 0.17677655345705 0  0.3344665889305379 0.17802313270238 0  0.3297607485867499 0.1792280940146806 0  0.3250509261493575 0.1803558429844826 0  0.3203450954612251 0.1814659355514215 0  0.3156167411254487 0.1824939406281021 0  0.3109090738694075 0.1834647406755701 0  0.3061676891656086 0.184382007756267 0  0.3014246491254895 0.1852173141132826 0  0.2966697192676651 0.1860079423841301 0  0.2919054149013943 0.1867198587573918 0  0.2871617815369099 0.18737731312501 0  0.2823842140212575 0.1879627837963312 0  0.2776319453735553 0.1884750152976531 0  0.2728539495303553 0.1889008072282822 0  0.2680976888354873 0.1892521535078353 0  0.2633231752904728 0.1895480105691719 0  0.2585455081877781 0.1897547538180771 0  0.2537689178889723 0.1898598427820572 0  0.5760065354209156 0.07922492198430464 0  0.580495662966842 0.08819719759651422 0  0.2589895165719076 0.2004171745579518 0  0.5272272237978127 0.1091963341730514 0  0.5497477939128601 0.09794454959473696 0  0.2774731579828939 0.1994412616473158 0  0.5007834431575847 0.122070393473303 0  0.5141660437434028 0.1155341108972604 0  0.2942508908149027 0.1958833971069638 0  0.5625971740808654 0.09103445146439502 0  0.3100502743838648 0.1938992350028195 0  0.3362441665919622 0.1888559812118176 0  0.4873581378561967 0.1285399410962301 0  0.3537068879573135 0.1830943167748789 0  0.473884063437218 0.1349275696003152 0  0.3685165876949843 0.1784505800947333 0  0.3866873731607152 0.1721017081798905 0  0.4598680835358901 0.1410406129824655 0  0.4464728914923282 0.1476134138893701 0  0.400332458674131 0.1670808399355255 0  0.4144909274863247 0.1613363435487376 0  0.4322365498246079 0.1538587106110226 0  0.3197115043595248 0.1919660712740603 0  0.5409318425675814 0.1023712876630085 0  0.4223442448788557 0.1579175507058229 0  0.3455354470044913 0.1856347501966646 0  0.3786767452696406 0.1751310961881476 0  0.2859719032548191 0.197729102048141 0  0.5694990999574489 0.08612243080242936 0  0.2680717482713183 0.2010749588626238 0  0.454206523912796 0.1466140063042056 0  0.4813028847908546 0.1340348232419926 0  0.4947667227933263 0.1275990368295628 0  0.3928830608782865 0.1673939043769345 0  0.4677848834729137 0.1403805584140652 0  0.508181704405308 0.1210899591181896 0  0.4405597585996456 0.1527095700617032 0  0.5215548780519605 0.114521954537202 0  0.4067426350120977 0.1620192237776351 0  0.3601494949713508 0.1787493611561857 0  0.3027389596013593 0.1929524073316333 0  0.5550684623397676 0.09279096170944837 0  0.5325188755340933 0.1033508755037836 0  0.328125611184966 0.1929769568786153 0  0.5336770218590901 0.1102968991963104 0  0.3285587336567702 0.1859424793954246 0  0.5208070294329886 0.1080324580771854 0  0.5074609307498611 0.1145949402235733 0  0.4940800647018324 0.1210972802566471 0  0.5597801181176737 0.09730543649813531 0  0.3015804028477007 0.1993596405430237 0  0.4671906644508327 0.1338635369604316 0  0.4806581963577907 0.1275256251711751 0  0.3929682236061087 0.1739300419571074 0  0.3598709717603382 0.1852725714395341 0  0.4496665023873134 0.1419051570685117 0  0.4401028786181819 0.146179259586089 0  0.4069566548856622 0.1685547497690874 0  0.2557135748314682 0.1960283446139202 0  0.255067018695833 0.2033981895206462 0  0.4301198326245889 0.1589055868872698 0  0.3710157033601437 0.1735923081693248 0  0.3385366018581097 0.1832801561609301 0  0.280819055003831 0.1943046941203935 0  0.2906210719163953 0.1931354520917771 0  0.4207621688917965 0.1630380103887814 0  0.3476871413024386 0.1807320150920556 0  0.3805225751633081 0.1701009778673581 0  0.3153919841814806 0.188925346288591 0  0.5459933190408178 0.1040954834429964 0  0.5428012942195319 0.09704653209568989 0  0.3165467446086127 0.1965710964235178 0  0.2707563473579271 0.195141183053039 0  0.5689790359897303 0.09365093366604008 0  0.4267278156595985 0.1512683077015854 0  0.4173503899941216 0.1556679032408688 0  0.3404244092527144 0.1918472293995105 0  0.2812952501472828 0.2030256479186086 0  0.2919152095626194 0.2017346637861404 0  0.3738020970941401 0.1814534511426071 0  0.3499643878724629 0.1895884448136883 0  0.3833442507783519 0.178817245170722 0  0.2646073993300749 0.1957769836438889 0  0.5749739101702244 0.08988549247163463 0  0.5153556947732114 0.1101823508422148 0  0.501998115384239 0.1167216983873958 0  0.3074467976498181 0.1988164470896814 0  0.4886037942380488 0.1231952794356857 0  0.5547776506549643 0.100338106953645 0  0.4751669797373673 0.1295885830153499 0  0.4617219210696694 0.1358615560301915 0  0.365628824
[...]
<PointData  Vectors="d"> 
<DataArray  type="Float64"  Name="d"  NumberOfComponents="3" format="ascii">-2.6238143297813602e-02 -1.1526112456261155e-01 0.0000000000000000e+00  -1.7259556010234628e-02 -1.1731682795754107e-01 0.0000000000000000e+00  0.0000000000000000e+00 0.0000000000000000e+00 0.0000000000000000e+00  0.0000000000000000e+00 0.0000000000000000e+00 0.0000000000000000e+00  -2.1748842477336564e-02 -1.1628891297926933e-01 0.0000000000000000e+00  0.0000000000000000e+00 0.0000000000000000e+00 0.0000000000000000e+00  0.0000000000000000e+00 0.0000000000000000e+00 0.0000000000000000e+00  0.0000000000000000e+00 0.0000000000000000e+00 0.0000000000000000e+00  0.0000000000000000e+00 0.0000000000000000e+00 0.0000000000000000e+00  1.5176660705956048e-04 -1.3291517860748760e-04 0.0000000000000000e+00  3.1836433688032471e-04 -2.7925424242492052e-04 0.0000000000000000e+00  4.8264499647703767e-04 -4.6597617928334305e-04 0.0000000000000000e+00  6.3487400574676277e-04 -7.7765107547730038e-04 0.0000000000000000e+00  7.7570962866437400e-04 -1.1574961275562607e-03 0.0000000000000000e+00  9.1760227777673206e-04 -1.6334907522162151e-03 0.0000000000000000e+00  1.0398159012815994e-03 -2.1595684764091306e-03 0.0000000000000000e+00  1.1408474811448626e-03 -2.7731106751034944e-03 0.0000000000000000e+00  1.2366246587911548e-03 -3.4562338595317006e-03 0.0000000000000000e+00  1.3155790054184650e-03 -4.2083639848036203e-03 0.0000000000000000e+00  1.3908861591091608e-03 -5.0541048703236493e-03 0.0000000000000000e+00  1.4630282527638610e-03 -5.9152451105683934e-03 0.0000000000000000e+00  1.4997343681142151e-03 -6.8793308193931674e-03 0.0000000000000000e+00  1.5491298212581036e-03 -7.9018001982498389e-03 0.0000000000000000e+00  1.5610020312832142e-03 -8.9732934365564353e-03 0.0000000000000000e+00  1.5644694570587591e-03 -1.0121219412128268e-02 0.0000000000000000e+00  1.5519349804194670e-03 -1.1312107248658393e-02 0.0000000000000000e+00  1.5190263391700826e-03 -1.2576249636933915e-02 0.0000000000000000e+00  1.4681652605122507e-03 -1.3870009769222452e-02 0.0000000000000000e+00  1.4018704168079473e-03 -1.5226460932272107e-02 0.0000000000000000e+00  1.3177081972295310e-03 -1.6625675031050811e-02 0.0000000000000000e+00  1.2144828363708914e-03 -1.8066906773919311e-02 0.0000000000000000e+00  1.1007545297105346e-03 -1.9578923434743850e-02 0.0000000000000000e+00  9.8388853202103143e-04 -2.1101435839535210e-02 0.0000000000000000e+00  8.3862381598786076e-04 -2.2685037982226514e-02 0.0000000000000000e+00  6.7794318869563754e-04 -2.4293759688191648e-02 0.0000000000000000e+00  5.0138576972462033e-04 -2.5948811147534386e-02 0.0000000000000000e+00  3.0890609772649791e-04 -2.7636731661511996e-02 0.0000000000000000e+00  9.8427561141021288e-05 -2.9355337708322188e-02 0.0000000000000000e+00  -1.2451982532100828e-04 -3.1126754317417762e-02 0.0000000000000000e+00  -3.4989152850330429e-04 -3.2903377887797874e-02 0.0000000000000000e+00  -6.0513198776841976e-04 -3.4722807775631567e-02 0.0000000000000000e+00  -8.7142107508609754e-04 -3.6578724040826328e-02 0.0000000000000000e+00  -1.1417070918973119e-03 -3.8442889144340013e-02 0.0000000000000000e+00  -1.4377346967845693e-03 -4.0345024541111184e-02 0.0000000000000000e+00  -1.7345431203650704e-03 -4.2268411042105845e-02 0.0000000000000000e+00  -2.0524347143744538e-03 -4.4213028984997411e-02 0.0000000000000000e+00  -2.3749603943531176e-03 -4.6185504260993167e-02 0.0000000000000000e+00  -2.7135456742554093e-03 -4.8171357507665422e-02 0.0000000000000000e+00  -3.0642129822886712e-03 -5.0179860401504892e-02 0.0000000000000000e+00  -3.4212665162605517e-03 -5.2204670846112126e-02 0.0000000000000000e+00  -3.7874562208050000e-03 -5.4247887268413307e-02 0.0000000000000000e+00  -4.1669642543766478e-03 -5.6306189424947813e-02 0.0000000000000000e+00  -4.5519234692324101e-03 -5.8378463083014871e-02 0.0000000000000000e+00  -4.9455716439985161e-03 -6.0466457393669466e-02 0.0000000000000000e+00  -5.3507395125781797e-03 -6.2566766594474285e-02 0.0000000000000000e+00  -5.7616979276432952e-03 -6.4678418083806949e-02 0.0000000000000000e+00  -6.1803975116052441e-03 -6.6803052489979961e-02 0.0000000000000000e+00  -6.6086720717997384e-03 -6.8936874842910223e-02 0.0000000000000000e+00  -7.0423457903834377e-03 -7.1080032395577197e-02 0.0000000000000000e+00  -7.4828316871808727e-03 -7.3233640341079820e-02 0.0000000000000000e+00  -7.9316818267503274e-03 -7.5394636065077139e-02 0.0000000000000000e+00  -8.3854120407603865e-03 -7.7563169372293350e-02 0.0000000000000000e+00  -8.8452056782053860e-03 -7.9740053056565618e-02 0.0000000000000000e+00  -9.3121477440606133e-03 -8.1922591000858039e-02 0.0000000000000000e+00  -9.7831264787836252e-03 -8.4111417539566094e-02 0.0000000000000000e+00  -1.0259272810762251e-02 -8.6306495385189183e-02 0.0000000000000000e+00  -1.0740707457235770e-02 -8.8506282841101333e-02 0.0000000000000000e+00  -1.1226562832501128e-02 -9.0709329703023034e-02 0.0000000000000000e+00  -1.1717579631130464e-02 -9.2916791685119446e-02 0.0000000000000000e+00  -1.2212216122797418e-02 -9.5128769799672636e-02 0.0000000000000000e+00  -1.2707687574657003e-02 -9.7341389043100621e-02 0.0000000000000000e+00  -1.3207921183589875e-02 -9.9557570702170931e-02 0.0000000000000000e+00  -1.3709310708260506e-02 -1.0177589514690964e-01 0.0000000000000000e+00  -1.4213406566006660e-02 -1.0399478292477840e-01 0.0000000000000000e+00  -1.4719563494972315e-02 -1.0621524418313415e-01 0.0000000000000000e+00  -1.5226289781779440e-02 -1.0843555143292269e-01 0.0000000000000000e+00  -1.5734341344747917e-02 -1.1065616048330025e-01 0.0000000000000000e+00  -1.6242796575455191e-02 -1.1287686850925920e-01 0.0000000000000000e+00  -1.6751121603672921e-02 -1.1509694432652222e-01 0.0000000000000000e+00  -2.5729707359101617e-02 -1.1304176590402946e-01 0.0000000000000000e+00  -2.5220679660809063e-02 -1.1082238261009879e-01 0.0000000000000000e+00  -2.4711114163119132e-02 -1.0860287100105426e-01 0.0000000000000000e+00  -2.4200901373735945e-02 -1.0638386737003494e-01 0.0000000000000000e+00  -2.3690420804696535e-02 -1.0416594862427582e-01 0.0000000000000000e+00  -2.3179359467194960e-02 -1.0194876191258286e-01 0.0000000000000000e+00  -2.2668459458815383e-02 -9.9734074627726793e-02 0.0000000000000000e+00  -2.2157116428862530e-02 -9.7522224053520387e-02 0.0000000000000000e+00  -2.1646619869357248e-02 -9.5312247227106975e-02 0.0000000000000000e+00  -2.1137107919886461e-02 -9.3107065447759887e-02 0.0000000000000000e+00  -2.0627932610078437e-02 -9.0904668212396039e-02 0.0000000000000000e+00  -2.0121803173413028e-02 -8.8707347676664938e-02 0.0000000000000000e+00  -1.9617634889298002e-02 -8.6517174192678001e-02 0.0000000000000000e+00  -1.9112817272237802e-02 -8.4329159944722260e-02 0.0000000000000000e+00  -1.8613342527122250e-02 -8.2148789137808292e-02 0.0000000000000000e+00  -1.8116764081811457e-02 -7.9978029961933705e-02 0.0000000000000000e+00  -1.7619966079680954e-02 -7.7810024235675845e-02 0.0000000000000000e+00  -1.7130634671213466e-02 -7.5651632520733675e-02 0.0000000000000000e+00  -1.6644534407597472e-02 -7.3504676588563772e-02 0.0000000000000000e+00  -1.6158336687240739e-02 -7.1360941798176786e-02 0.0000000000000000e+00  -1.5681041595681837e-02 -6.9229067971144614e-02 0.0000000000000000e+00  -1.5207065850144717e-02 -6.7110868123435308e-02 0.0000000000000000e+00  -1.4732966811299495e-02 -6.4996413936806982e-02 0.0000000000000000e+00  -1.4268935565860778e-02 -6.2896524001967713e-02 0.0000000000000000e+00  -1.3808018336994729e-02 -6.0813463766280974e-02 0.0000000000000000e+00  -1.3347688740543935e-02 -5.8736475504583670e-02 0.0000000000000000e+00  -1.2895578380404150e-02 -5.6675483967397758e-02 0.0000000000000000e+00  -1.2447806770502765e-02 -5.4635862412379485e-02 0.0000000000000000e+00  -1.2000969982342846e-02 -5.2600260968262619e-02 0.0000000000000000e+00  -1.1567570098070202e-02 -5.0586357822249690e-02 0.0000000000000000e+00  -1.1135784714463085e-02 -4.8600986260421308e-02 0.0000000000000000e+00  -1.0703561850678339e-02 -4.6622210489331711e-02 0.0000000000000000e+00  -1.0283428718114317e-02 -4.4671882573709847e-02 0.0000000000000000e+00  -9.8696740757558757e-03 -4.2735857005835258e-02 0.0000000000000000e+00  -9.4624469227190238e-03 -4.0825115484985096e-02 0.0000000000000000e+00  -9.0668161120077782e-03 -3.8944982174053615e-02 0.0000000000000000e+00  -8.6691820351376039e-03 -3.7083540506603410e-02 0.0000000000000000e+00  -8.2853128246212302e-03 -3.5252808203710281e-02 0.0000000000000000e+00  -7.9043030220797839e-03 -3.3449917887872417e-02 0.0000000000000000e+00  -7.5298612523189224e-03 -3.1679218909818084e-02 0.0000000000000000e+00  -7.1670643913256957e-03 -2.9941664458674317e-02 0.0000000000000000e+00  -6.8184167892260915e-03 -2.8227752938621328e-02 0.0000000000000000e+00  -6.4812907068857156e-03 -2.6551595073339949e-02 0.0000000000000000e+00  -6.1349359695934934e-03 -2.4906694841252814e-02 0.0000000000000000e+00  -5.8139344803608316e-03 -2.3301484183762700e-02 0.0000000000000000e+00  -5.4882562841488992e-03 -2.1742563507570617e-02 0.0000000000000000e+00  -5.1832080359766148e-03 -2.0212501719696366e-02 0.0000000000000000e+00  -4.8838515728932934e-03 -1.8734693036063472e-02 0.0000000000000000e+00  -4.5991581600630790e-03 -1.7286673133181156e-02 0.0000000000000000e+00  -4.3264662252448793e-03 -1.5889260642411203e-02 0.0000000000000000e+00  -4.0390929692947384e-03 -1.4530925099156286e-02 0.0000000000000000e+00  -3.7809698214299700e-03 -1.3223446542949987e-02 0.0000000000000000e+00  -3.5117086711156657e-03 -1.1976867297620000e-02 0.0000000000000000e+00  -3.2737433092651495e-03 -1.0771905985319378e-02 0.0000000000000000e+00  -3.0397600410174636e-03 -9.6441570155173639e-03 0.0000000000000000e+00  -2.8017850234919959e-03 -8.5340644485784965e-03 0.0000000000000000e+00  -2.5863336536102949e-03 -7.5060593718977971e-03 0.0000000000000000e+00  -2.3501952039937592e-03 -6.5352593244299663e-03 0.0000000000000000e+00  -2.1477742021494667e-03 -5.6179922437330282e-03 0.0000000000000000e+00  -1.9470085366300742e-03 -4.7826858867173229e-03 0.0000000000000000e+00  -1.7581326888162917e-03 -3.9920576158699221e-03 0.0000000000000000e+00  -1.5786313494486818e-03 -3.2801412426082376e-03 0.0000000000000000e+00  -1.3784590082774651e-03 -2.6226868749900027e-03 0.0000000000000000e+00  -1.2122208182720109e-03 -2.0372162036687508e-03 0.0000000000000000e+00  -1.0206837603163094e-03 -1.5249847023469413e-03 0.0000000000000000e+00  -8.5487389786905376e-04 -1.0991927717178276e-03 0.0000000000000000e+00  -6.6732888709865974e-04 -7.4784649216470009e-04 0.0000000000000000e+00  -4.9803672647485183e-04 -4.5198943082801077e-04 0.0000000000000000e+00  -3.3189812353105313e-04 -2.4524618192284372e-04 0.0000000000000000e+00  -1.6468271668563050e-04 -1.4015721794276138e-04 0.0000000000000000e+00  -2.3993464579084366e-02 -1.1577507801567366e-01 0.0000000000000000e+00  -1.9504337033158077e-02 -1.1680280240345867e-01 0.0000000000000000e+00  1.6090040258316276e-05 -1.3521478488851422e-04 0.0000000000000000e+00  -1.5919010587494814e-02 -9.0803665826917623e-02 0.0000000000000000e+00  -1.8491995563955844e-02 -1.0202590898616173e-01 0.0000000000000000e+00  2.1765271091516523e-05 -1.3529302948768009e-03 0.0000000000000000e+00  -1.3066140219312301e-02 -7.7831949175788895e-02 0.0000000000000000e+00  -1.4514956750335303e-02 -8.4368231751836442e-02 0.0000000000000000e+00  -2.6000439086197130e-04 -3.4077937335748147e-03 0.0000000000000000e+00  -2.0180909057627091e-02 -1.0850852863593989e-01 0.0000000000000000e+00  -3.6256527306075356e-04 -6.0712235780782881e-03 0.0000000000000000e+00  -7.5600894989285574e-04 -1.1973480031579165e-02 0.0000000000000000e+00  -1.1660028403849203e-02 -7.1362401552860055e-02 0.0000000000000000e+00  -1.5747296135909237e-03 -1.6905683225181906e-02 0.0000000000000000e+00  -1.0302685705974620e-02 -6.4974773048769738e-02 0.0000000000000000e+00  -2.2207836955708206e-03 -2.1563657600635597e-02 0.0000000000000000e+00  -3.2008843495343240e-03 -2.7898291820192354e-02 0.0000000000000000e+00  -9.1176715133833366e-03 -5.8501059443203995e-02 0.0000000000000000e+00  -7.6848401918683433e-03 -5.2386586110539625e-02 0.0000000000000000e+00  -4.0210327277020166e-03 -3.3016817415398934e-02 0.0000000000000000e+00  -5.0601642576321854e-03 -3.8663656451368128e-02 0.0000000000000000e+00  -6.4654280398433461e-03 -4.6127051693654601e-02 0.0000000000000000e+00  -5.3577066614550332e-04 -8.0428129405795360e-03 0.0000000000000000e+00  -1.7473511540503632e-02 -9.7619828122349234e-02 0.0000000000000000e+00  -5.7224698098577217e-03 -4.1931354115001221e-02 0.0000000000000000e+00  -1.2305476220560762e-03 -1.4516344982772860e-02 0.0000000000000000e+00  -2.6958892962502543e-03 -2.5019998991304433e-02 0.0000000000000000e+00  -9.6434437390766637e-05 -2.3124425224771744e-03 0.0000000000000000e+00  -2.1623281220670622e-02 -1.1212248513244502e-01 0.0000000000000000e+00  8.2432125455661931e-05 -6.0016678410520813e-04 0.0000000000000000e+00  -7.3669163298319372e-03 -5.5636357024594692e-02 0.0000000000000000e+00  -9.9333896854907257e-03 -6.8215540086816503e-02 0.0000000000000000e+00  -1.1300968799872130e-02 -7.4651326499249021e-02 0.0000000000000000e+00  -4.4209051903909063e-03 -3.0355732294262038e-02 0.0000000000000000e+00  -8.6199738865758539e-03 -6.1869804914739937e-02 0.0000000000000000e+00  -1.2717404304737596e-02 -8.1160404210628867e-02 0.0000000000000000e+00  -6.1822645261199244e-03 -4.9540793267096712e-02 0.0000000000000000e+00  -1.4175647774924157e-02 -8.7728408791617751e-02 0.0000000000000000e+00  -5.3927481734338725e-03 -3.5730412893562581e-02 0.0000000000000000e+00  -2.5478311579844588e-03 -1.9000275515006187e-02 0.0000000000000000e+00  -6.3269806053682805e-04 -4.7972293395535694e-03 0.0000000000000000e+00  -2.0212509132055301e-02 -1.0495867496170193e-01 0.0000000000000000e+00  -1.7940980384962672e-02 -9.3777602969983068e-02 0.0000000000000000e+00  -6.7162029718196726e-05 -9.8945646476253316e-03 0.0000000000000000e+00  -1.4740880190656079e-02 -9.3543422373165930e-02 0.0000000000000000e+00  -1.6759934272286077e-03 -1.0217199035124523e-02 0.0000000000000000e+00  -1.7114055790822726e-02 -8.8092723587225655e-02 0.0000000000000000e+00  -1.5628737357104076e-02 -8.1530241440832513e-02 0.0000000000000000e+00  -1.4178186288289834e-02 -7.5027901407762679e-02 0.0000000000000000e+00  -1.7691412751035553e-02 -1.0656938183745340e-01 0.0000000000000000e+00  3.9930458274588297e-04 -4.5151777925699788e-03 0.0000000000000000e+00  -1.1404752305578442e-02 -6.2261644703972434e-02 0.0000000000000000e+00  -1.2768637515476312e-02 -6.8599556493231115e-02 0.0000000000000000e+00  -2.1451830656543562e-03 -2.9944776378489184e-02 0.0000000000000000e+00  -6.3579497207361818e-04 -1.8602246896060930e-02 0.0000000000000000e+00  -9.7163784584012158e-03 -5.4220024595887567e-02 0.0000000000000000e+00  -8.8297039044985849e-03 -4.9945922078311680e-02 0.0000000000000000e+00  -2.9881689029597697e-03 -3.5320068566511674e-02 0.0000000000000000e+00  -7.2725148728933553e-05 -5.7492411809306258e-05 0.0000000000000000e+00  5.2282664893239348e-05 -4.4453478465210102e-05 0.0000000000000000e+00  -4.6833150218799791e-03 -4.4868170876885598e-02 0.0000000000000000e+00  -3.6204982482662875e-03 -2.2633934066530501e-02 0.0000000000000000e+00  -2.0892347283208699e-03 -1.2766636033058892e-02 0.0000000000000000e+00  -4.8111311515234998e-04 -1.7420980736566481e-03 0.0000000000000000e+00  -6.4756682759395119e-04 -2.9461807731511517e-03 0.0000000000000000e+00  -3.9083646901927789e-03 -4.0915197417172956e-02 0.0000000000000000e+00  -2.4750344304744730e-03 -1.5314777102132181e-02 0.0000000000000000e+00  -4.2462405089613194e-03 -2.5945814326877824e-02 0.0000000000000000e+00  -1.2403843568753212e-03 -7.2341122747789739e-03 0.0000000000000000e+00  -1.6161682064523234e-02 -9.9686165816902733e-02 0.0000000000000000e+00  -1.9640093482444963e-02 -9.9029660265447836e-02 0.0000000000000000e+00  3.0724102529981035e-04 -7.2968593189513655e-03 0.0000000000000000e+00  -3.3236606283505428e-04 -8.2846127954484805e-04 0.0000000000000000e+00  -1.8322401650630073e-02 -1.1107185443704223e-01 0.0000000000000000e+00  -7.9401409846723975e-03 -4.4196838253665965e-02 0.0000000000000000e+00  -6.9792604136770095e-03 -4.0207794853037389e-02 0.0000000000000000e+00  1.6845816936209425e-04 -1.2946820629581838e-02 0.0000000000000000e+00  4.2675747118949605e-04 -1.7485938626569668e-03 0.0000000000000000e+00  5.0750624874707807e-04 -3.0462879209551606e-03 0.0000000000000000e+00  -9.6929551635302187e-04 -2.3081402902248319e-02 0.0000000000000000e+00  4.2738982576247034e-05 -1.5586896504942188e-02 0.0000000000000000e+00  -1.1840380508778144e-03 -2.6358096147914015e-02 0.0000000000000000e+00  -2.0708721543037008e-04 -4.3199065474850692e-04 0.0000000000000000e+00  -1.9350854196064991e-02 -1.1415604988728358e-01 0.0000000000000000e+00  -1.6741566272403120e-02 -8.5462159062872314e-02 0.0000000000000000e+00  -1.5267728544533735e-02 -7.8922811517689553e-02 0.0000000000000000e+00  4.5447208955243511e-04 -5.5303562975737427e-03 0.0000000000000000e+00  -1.3830632573877713e-02 -7.2449230469400688e-02 0.0000000000000000e+00  -1.6882652918470870e-02 -1.0400869643363110e-01 0.0000000000000000e+00  -1.2436029957706783e-02 -6.6055926889733246e-02 0.0000000000000000e+00  -1.1093276459957000e-02 -5.9778690860797880e-02 0.0000000000000000e+00  -7.0135355109638624e-04 -2.0397540171982021e-02 0.0000000000000000e+00  -1.0415175520436699e-02 -5.6576810415407901e-02 0.0000000000000000e+00  -2.2980831750144472e-03 -3.2051314429122360e-02 0.0000000000000000e+00  -8.5543271285523810e-03 -4.7560828182925403e-02 0.0000000000000000e+00  -3.1733392823377607e-03 -3.7533037482978919e-02 0.0000000000000000e+00  -2.2293591004005384e-02 -1.0978738097164954e-01 0.0000000000000000e+00  -1.5056830951743068e-02 -9.6170845865276647e-02 0.0000000000000000e+00  -1.6169140552354103e-03 -8.8915454860234826e-03 0.0000000000000000e+00  3.4260040406396196e-04 -9.1402804478459855e-04 0.0000000000000000e+00  1.8370854109762714e-04 -3.4779321521765722e-04 0.0000000000000000e+00  -5.9923906466633464e-03 -5.3856688949295344e-02 0.0000000000000000e+00  -6.5593616879885391e-03 -3.7316149104828916e-02 0.0000000000000000e+00  -7.2010985024974798e-03 -6.0058143672459263e-02 0.0000000000000000e+00  -1.1243725755737892e-02 -7.9273067425414012e-02 0.0000000000000000e+00  -8.5174626092881702e-03 -6.6363787824228748e-02 0.0000000000000000e+00  -9.8538611460468432e-03 -7.2779689552742471e-02 0.0000000000000000e+00  -5.3148236683597840e-03 -3.2031476979755336e-02 0.0000000000000000e+00  -4.9317771458101426e-03 -4.7832341347693069e-02 0.0000000000000000e+00  -3.4417017917935297e-03 -2.0335803914871747e-02 0.0000000000000000e+00  -4.9601654353546853e-03 -2.8556536163035648e-02 0.0000000000000000e+00  -1.3585488546580633e-02 -9.0095698516624620e-02 0.0000000000000000e+00  -3.0309733643645938e-03 -1.7501946183486852e-02 0.0000000000000000e+00  -1.2971164010540891e-02 -8.5677701554845317e-02 0.0000000000000000e+00  -1.1225437533943896e-03 -5.5788744446512092e-03 0.0000000000000000e+00  -9.2225809417856774e-04 -4.0053380051345558e-03 0.0000000000000000e+00  -2.1655089419051650e-02 -1.0670373757191738e-01 0.0000000000000000e+00  -2.0797544410665451e-02 -1.0256890935880725e-01 0.0000000000000000e+00  -1.1215444719505646e-02 -7.7041910691872759e-02 0.0000000000000000e+00  -9.8369680675099817e-03 -7.0574853506987778e-02 0.0000000000000000e+00  -7.1251304383952536e-03 -5.7858877054056998e-02 0.0000000000000000e+00  -1.2523114676360601e-02 -8.3533696316295328e-02 0.0000000000000000e+00  -8.5126529845667206e-03 -6.4191165822150384e-02 0.0000000000000000e+00  -5.8985580984706968e-03 -5.1718787532352296e-02 0.0000000000000000e+00  -5.6179237625492923e-03 -3.3779586202561794e-02 0.0000000000000000e+00  4.1091319776994972e-04 -8.8720131650148019e-03 0.0000000000000000e+00  -1.9239831786077209e-02 -9.5696601110635313e-02 0.0000000000000000e+00  -1.8214662022698381e-02 -9.1519098660241480e-02 0.0000000000000000e+00  2.5335212