<?xml version="1.0"?>
<VTKFile type="UnstructuredGrid"  version="0.1"  >
<UnstructuredGrid>
<Piece  NumberOfPoints="439" NumberOfCells="725">
<Points>
<DataArray  type="Float64"  NumberOfComponents="3"  format="ascii">0.5709116112972943 0.06846119918485191 0  0.5801908039454261 0.08672457202873317 0  0.2489897949 0.21 0  0.2489897949 0.19 0  0.5755548749091663 0.07760100996382921 0  0.2496355385699469 0.2060260530378829 0  0.249959460510575 0.2020130349814059 0  0.2499594605105767 0.1979869650186357 0  0.24963553856995 0.1939739469621422 0  0.2541159993803541 0.2098292670296951 0  0.2592512721178674 0.2096335181066266 0  0.2643775801147379 0.2093832049277221 0  0.269479253304621 0.2089855756076451 0  0.2745578849119161 0.2085130527644742 0  0.2796272093995368 0.2079337192109886 0  0.2846688781247917 0.2073073687511723 0  0.2896802284475437 0.2065967916804087 0  0.2946794306746831 0.2058255961501438 0  0.299658062080581 0.2050002034070287 0  0.3046299359260933 0.2041100691410977 0  0.3095929425141265 0.2032143058583727 0  0.3145309060728768 0.2022531659416569 0  0.3194694789265287 0.2012670296484365 0  0.3243846828443543 0.2002547529473297 0  0.3292911921303823 0.1992054674088778 0  0.3341871405147257 0.1981344933684587 0  0.3390680222395675 0.1970272661252492 0  0.3439369753914475 0.1959024706685224 0  0.3487944077015169 0.1947408545165668 0  0.3536405746536798 0.1935506942014497 0  0.3584738946206237 0.1923255303546262 0  0.3633000467880163 0.1910272662836427 0  0.3681339418269254 0.1897111992866445 0  0.3729538616255366 0.1883217433936192 0  0.3777681412767983 0.1868922149640005 0  0.3825805378523736 0.1853940674396163 0  0.3873876894469889 0.1838455827269679 0  0.3921839557449934 0.1822445777203544 0  0.3969834162706229 0.1805538246300108 0  0.401785141613466 0.1788534142911343 0  0.4065566365456024 0.1770736005165128 0  0.4113292531132282 0.1752207319568146 0  0.4161020702891486 0.1733519823992563 0  0.4208513060055172 0.1714018834401939 0  0.4256173219017766 0.1694113596039546 0  0.4303539053597873 0.1673680386370827 0  0.4350955730947936 0.1652672457855169 0  0.4398059082248549 0.1631286972617624 0  0.4444884507592496 0.160941505676638 0  0.4491473721879932 0.1587124265170885 0  0.4537763206309122 0.1564411324660315 0  0.4583520986982507 0.1541286193950221 0  0.4629018111239891 0.1517762047990186 0  0.4674112835305732 0.1493854250560897 0  0.4718687536598955 0.146943867211111 0  0.4763036414288819 0.1444754841194535 0  0.4806977744160852 0.1419749792048513 0  0.485066164774782 0.1394391869389197 0  0.4894215496387663 0.1369009324814342 0  0.4937469251656522 0.1343573067790391 0  0.4980694213367546 0.1318198499888089 0  0.502389679356634 0.1292998430127969 0  0.5066955326526752 0.1267967007728642 0  0.5109939107745086 0.1243197356721594 0  0.5152889114273285 0.1218570657775786 0  0.519566960455201 0.1194209542457764 0  0.5238397072433469 0.1170061524381332 0  0.52807461118641 0.1146240150106421 0  0.5322947122740859 0.1122449930907175 0  0.5365343442314852 0.1098723200003982 0  0.5407637713115518 0.1075329861172035 0  0.5449855269151728 0.1052061993225005 0  0.5492497259901954 0.1029077927514152 0  0.553538030973612 0.1006039344818324 0  0.5578987412010679 0.09829623707007579 0  0.5622734902414678 0.09600167268065214 0  0.5667032385407244 0.09368108982766042 0  0.5711828431429022 0.09136780887765557 0  0.5756743487079719 0.08904712276102407 0  0.5664230113211381 0.0707552109264921 0  0.5619619242789267 0.07305257718799443 0  0.5575225203581315 0.07534961435431989 0  0.5530726267584347 0.07765072942928436 0  0.5486562883119023 0.07994696663847134 0  0.5442186413044381 0.08227098273298654 0  0.539799970109803 0.08460712349611828 0  0.5353944785929143 0.08695549972046014 0  0.5309899806711608 0.08933101738103831 0  0.5266227933622926 0.09171435382974334 0  0.5222517598149096 0.09412408957441472 0  0.5178928089956061 0.09653464678319902 0  0.5135742331846951 0.09896701851831241 0  0.5092406967093521 0.1014371775885774 0  0.5049139935870386 0.1039089820880139 0  0.5006156510157022 0.1064082884448337 0  0.496313409666127 0.1089358013377286 0  0.4920207485385203 0.1114592729324337 0  0.4877495248089043 0.1140072395668576 0  0.4834771252516294 0.1165632018321127 0  0.4792184405240933 0.1190951954385699 0  0.4749692075848828 0.1216270130550975 0  0.4707111318198381 0.1241394801564843 0  0.4664556724846619 0.1266002187919228 0  0.4621849531821066 0.1290236417772307 0  0.4578923585150312 0.1314115397121585 0  0.4535822448611975 0.1337344369016295 0  0.4492268568176306 0.1360029704663407 0  0.4448552082935242 0.1382492077896357 0  0.4404224496158564 0.1404416458417772 0  0.4359651713040034 0.142571728066713 0  0.4314923149625977 0.1446911728261193 0  0.4269817594991662 0.1467563581495155 0  0.4224510787709452 0.1488032392062343 0  0.4179098758506896 0.1508013402514805 0  0.4133485770018444 0.1527452528437229 0  0.4087998862332498 0.1546513515844413 0  0.4042367162193459 0.1565034301837007 0  0.3996744471756596 0.1583014341673278 0  0.3951106492646999 0.1600370059842067 0  0.3905362304311433 0.1617101601145683 0  0.3859460031921564 0.1633385761845263 0  0.3813484803283402 0.164899229463163 0  0.3767687259440761 0.1664063207947442 0  0.3721616653896323 0.1678441641534896 0  0.3675561282495407 0.1692091681361328 0  0.3629220194639562 0.1705259278756198 0  0.3582687483224644 0.1717744874712194 0  0.3535888503438771 0.1729874537948686 0  0.3488804496799229 0.1741535511165486 0  0.3441667092016094 0.1752844070840935 0  0.339417251752804 0.1763914897232848 0  0.3346579428282497 0.1774629276858322 0  0.3298769205322481 0.1785223439998258 0  0.3250871113344861 0.1795499424389867 0  0.3202984414650027 0.1805720937724617 0  0.3154992422741626 0.1815617020448065 0  0.3107160756113368 0.1825255906058745 0  0.3059252417486726 0.1834631143779887 0  0.3011446910807787 0.1843511455848379 0  0.2963676891646146 0.1852091066488404 0  0.2915962439995545 0.1860069450273054 0  0.2868517846804094 0.1867592488527969 0  0.282089220077632 0.1874420125370948 0  0.2773607585674511 0.1880570937936124 0  0.2726143794125973 0.1885758816963229 0  0.2678990925509705 0.1890136549909626 0  0.2631682748987687 0.1893865306158053 0  0.2584368330638286 0.1896549434990616 0  0.2537109876724601 0.1898043504825877 0  0.5732345374072473 0.07303281298802664 0  0.577869170994572 0.08215610222789459 0  0.2589768937081709 0.2003506701922918 0  0.5250922237038539 0.1045757703275962 0  0.5469877165935626 0.09257519741432584 0  0.2773915230992555 0.1990439660251478 0  0.4995795281620905 0.1189298583366115 0  0.5124848641428883 0.1115290558281642 0  0.2940598460680992 0.1951326462581729 0  0.559752271354321 0.08529026114698095 0  0.3098248589422501 0.1929649743124542 0  0.3360971169822957 0.1883152189111989 0  0.4866807447790344 0.1264965949540937 0  0.3536686529525236 0.183301116642261 0  0.4737875675982824 0.1340556128677453 0  0.3685076330676305 0.1793754383192618 0  0.3867352367552082 0.1736551710456909 0  0.4602409235738339 0.1411874674800087 0  0.4470617149565053 0.1484734826577172 0  0.4004742402789034 0.168863244289222 0  0.4147745606804166 0.163099043999533 0  0.4327457898965719 0.1552492230459884 0  0.3195042487042526 0.1910582847068374 0  0.5383541004868595 0.09728138770458743 0  0.4227280049497955 0.1595542368350141 0  0.3454586762773481 0.1854572680134499 0  0.3786806130389546 0.1764534071490293 0  0.285832589601349 0.1971473824510378 0  0.5666724279762644 0.08016230713808394 0  0.2680416378072908 0.2008670514556928 0  0.4548350266968177 0.1471295000674802 0  0.4811088354600078 0.1325794022328575 0  0.4940215374375096 0.1249755195400899 0  0.3930404790611197 0.1690859815448804 0  0.4681149144414984 0.1400349971094742 0  0.5069408602152835 0.1174813734039853 0  0.4411888193340645 0.1538414411602824 0  0.5198166300511393 0.1101868923291387 0  0.4069897634711464 0.1638113970891876 0  0.3602359572225682 0.1792979078607918 0  0.3025107002297212 0.1920718521710149 0  0.5522203522478561 0.08719818045360468 0  0.5300064930641415 0.09844899212166015 0  0.3279012267423221 0.192216904164555 0  0.5316023112571631 0.1054881280608899 0  0.3284810986502821 0.1851879203055966 0  0.5185687723896559 0.1035914919106769 0  0.5056664243146561 0.1109017382301961 0  0.4927724981318773 0.1183914642169023 0  0.5569906319005672 0.0917477872712739 0  0.3014019925617287 0.1985149131739573 0  0.467064483095859 0.1334434253972661 0  0.4799233006891329 0.1259815621239464 0  0.3929293430521379 0.175595546349183 0  0.3596667356800503 0.1857472903236265 0  0.4500608065308589 0.1425703367912554 0  0.4405943287057262 0.1472498376244174 0  0.4070823235845356 0.1703689173723174 0  0.2556873520889116 0.1959905017315125 0  0.255071775130372 0.2033709281507926 0  0.4306163566510551 0.1604062455240352 0  0.3711842762246428 0.174665053365483 0  0.3385634904488776 0.182833253912862 0  0.2806442685090508 0.1938259134389002 0  0.2904000101085129 0.1924491914476654 0  0.4210932629258494 0.1647436497677198 0  0.3477916376576558 0.1806755178881341 0  0.3807023182821352 0.1715183092318824 0  0.3151980410669093 0.1879825678053146 0  0.5434558068522339 0.09890781710914073 0  0.5400269946252457 0.09174488820687206 0  0.3163116399794172 0.1956596591474283 0  0.2706362698469965 0.1948711083200641 0  0.5662012460987224 0.08788474652904898 0  0.4271601360664869 0.152755780715734 0  0.4177077418161246 0.1573541554209989 0  0.3401619603580822 0.1914565420795101 0  0.2812555582463746 0.2025531606702727 0  0.2918112846810497 0.201045123560383 0  0.3735923780580291 0.182545106795764 0  0.3496938910679222 0.1895909041780099 0  0.3831625293317283 0.1802294575634992 0  0.2645279189927293 0.1956154301972393 0  0.5722479069231385 0.0839504694190918 0  0.5132536457008425 0.1059914365273136 0  0.5003467267503838 0.113381195397702 0  0.3072434105976263 0.1979183818365061 0  0.4874706358213375 0.1209356148644491 0  0.5520611533547239 0.09492150278669434 0  0.474637235502656 0.1285088876104692 0  0.4617657288847659 0.1358230
[...]
<PointData  Vectors="d"> 
<DataArray  type="Float64"  Name="d"  NumberOfComponents="3" format="ascii">-2.9088388702705453e-02 -1.2153880081514809e-01 0.0000000000000000e+00  -1.9809196054573836e-02 -1.2327542797126681e-01 0.0000000000000000e+00  0.0000000000000000e+00 0.0000000000000000e+00 0.0000000000000000e+00  0.0000000000000000e+00 0.0000000000000000e+00 0.0000000000000000e+00  -2.4445125090833773e-02 -1.2239899003617093e-01 0.0000000000000000e+00  0.0000000000000000e+00 0.0000000000000000e+00 0.0000000000000000e+00  0.0000000000000000e+00 0.0000000000000000e+00 0.0000000000000000e+00  0.0000000000000000e+00 0.0000000000000000e+00 0.0000000000000000e+00  0.0000000000000000e+00 0.0000000000000000e+00 0.0000000000000000e+00  1.8239877472511334e-04 -1.7073297030489439e-04 0.0000000000000000e+00  3.7386580661329046e-04 -3.6648189337341462e-04 0.0000000000000000e+00  5.5636809784582499e-04 -6.1679507227782138e-04 0.0000000000000000e+00  7.1423558209097223e-04 -1.0144243923549286e-03 0.0000000000000000e+00  8.4906148375898244e-04 -1.4869472355259336e-03 0.0000000000000000e+00  9.7458026576138443e-04 -2.0662807890113226e-03 0.0000000000000000e+00  1.0724432853980405e-03 -2.6926312488275979e-03 0.0000000000000000e+00  1.1399879025270644e-03 -3.4032083195913243e-03 0.0000000000000000e+00  1.1953844240308168e-03 -4.1744038498561257e-03 0.0000000000000000e+00  1.2302101243101306e-03 -4.9997965929713300e-03 0.0000000000000000e+00  1.2582782641935677e-03 -5.8899308589023579e-03 0.0000000000000000e+00  1.2774791466085014e-03 -6.7856941416272326e-03 0.0000000000000000e+00  1.2716369997401225e-03 -7.7468340583431794e-03 0.0000000000000000e+00  1.2664041477737469e-03 -8.7329703515634082e-03 0.0000000000000000e+00  1.2378023599811242e-03 -9.7452470526702105e-03 0.0000000000000000e+00  1.2005059403906923e-03 -1.0794532591122152e-02 0.0000000000000000e+00  1.1526486191048911e-03 -1.1865506631541237e-02 0.0000000000000000e+00  1.0897246383390017e-03 -1.2972733874750815e-02 0.0000000000000000e+00  1.0148720845897649e-03 -1.4097529331477499e-02 0.0000000000000000e+00  9.2849868904103998e-04 -1.5259145483433158e-02 0.0000000000000000e+00  8.3085993558533217e-04 -1.6449305798550300e-02 0.0000000000000000e+00  7.2037419691118882e-04 -1.7674469645373812e-02 0.0000000000000000e+00  6.0272065868531436e-04 -1.8972733716357180e-02 0.0000000000000000e+00  4.9280999197575217e-04 -2.0288800713355475e-02 0.0000000000000000e+00  3.6892408495795492e-04 -2.1678256606380723e-02 0.0000000000000000e+00  2.3939803061068712e-04 -2.3107785035999581e-02 0.0000000000000000e+00  1.0798890056143682e-04 -2.4605932560383778e-02 0.0000000000000000e+00  -2.8665210444968124e-05 -2.6154417273032058e-02 0.0000000000000000e+00  -1.7620461806974616e-04 -2.7755422279645659e-02 0.0000000000000000e+00  -3.2054979804754590e-04 -2.9446175369989246e-02 0.0000000000000000e+00  -4.6263016083241770e-04 -3.1146585708865832e-02 0.0000000000000000e+00  -6.3494093430857806e-04 -3.2926399483487183e-02 0.0000000000000000e+00  -8.0613007230272745e-04 -3.4779268043185485e-02 0.0000000000000000e+00  -9.7711860200321195e-04 -3.6648017600743744e-02 0.0000000000000000e+00  -1.1716885912462444e-03 -3.8598116559806148e-02 0.0000000000000000e+00  -1.3494784006152800e-03 -4.0588640396045386e-02 0.0000000000000000e+00  -1.5567006482376977e-03 -4.2631961362917331e-02 0.0000000000000000e+00  -1.7588386188836056e-03 -4.4732754214483139e-02 0.0000000000000000e+00  -1.9923091944779210e-03 -4.6871302738237516e-02 0.0000000000000000e+00  -2.2535723657471154e-03 -4.9058494323361769e-02 0.0000000000000000e+00  -2.5384566426513953e-03 -5.1287573482911457e-02 0.0000000000000000e+00  -2.8533139053742670e-03 -5.3558867533968622e-02 0.0000000000000000e+00  -3.2213415436653531e-03 -5.5871380604977927e-02 0.0000000000000000e+00  -3.6154348235774153e-03 -5.8223795200981400e-02 0.0000000000000000e+00  -4.0497681226266610e-03 -6.0614574943910204e-02 0.0000000000000000e+00  -4.5361036989712946e-03 -6.3056132788888927e-02 0.0000000000000000e+00  -5.0450216356314496e-03 -6.5524515880546572e-02 0.0000000000000000e+00  -5.5946943540909604e-03 -6.8025020795148702e-02 0.0000000000000000e+00  -6.1701097010244633e-03 -7.0560813061080377e-02 0.0000000000000000e+00  -6.7585305426948418e-03 -7.3099067518565777e-02 0.0000000000000000e+00  -7.3769607214371723e-03 -7.5642693220960844e-02 0.0000000000000000e+00  -7.9982702559944774e-03 -7.8180150011191052e-02 0.0000000000000000e+00  -8.6218179417534881e-03 -8.0700156987203037e-02 0.0000000000000000e+00  -9.2597703513291104e-03 -8.3203299227135888e-02 0.0000000000000000e+00  -9.9051979351329113e-03 -8.5680264327840705e-02 0.0000000000000000e+00  -1.0554002987972263e-02 -8.8142934222421199e-02 0.0000000000000000e+00  -1.1219759665738469e-02 -9.0579045754223639e-02 0.0000000000000000e+00  -1.1890818583251767e-02 -9.2993847561866891e-02 0.0000000000000000e+00  -1.2599720345826871e-02 -9.5375984989357843e-02 0.0000000000000000e+00  -1.3323424963767381e-02 -9.7755006909282377e-02 0.0000000000000000e+00  -1.4027598712005608e-02 -1.0012767999960191e-01 0.0000000000000000e+00  -1.4741977337593569e-02 -1.0246701388279643e-01 0.0000000000000000e+00  -1.5464027439615904e-02 -1.0479380067749963e-01 0.0000000000000000e+00  -1.6143634070252884e-02 -1.0709220724858481e-01 0.0000000000000000e+00  -1.6799134792499497e-02 -1.0939606551816751e-01 0.0000000000000000e+00  -1.7382230270677947e-02 -1.1170376292992430e-01 0.0000000000000000e+00  -1.7951286935915987e-02 -1.1399832731934784e-01 0.0000000000000000e+00  -1.8465344342309724e-02 -1.1631891017233961e-01 0.0000000000000000e+00  -1.8929545445778396e-02 -1.1863219112234440e-01 0.0000000000000000e+00  -1.9381845586368567e-02 -1.2095287723897598e-01 0.0000000000000000e+00  -2.8633182973245096e-02 -1.1924478907350784e-01 0.0000000000000000e+00  -2.8150464309831393e-02 -1.1694742281200554e-01 0.0000000000000000e+00  -2.7646062524987868e-02 -1.1465038564568009e-01 0.0000000000000000e+00  -2.7152150419038019e-02 -1.1234927057071557e-01 0.0000000000000000e+00  -2.6624683159948998e-02 -1.1005303336152869e-01 0.0000000000000000e+00  -2.6118524461793548e-02 -1.0772901726701352e-01 0.0000000000000000e+00  -2.5593389950815334e-02 -1.0539287650388174e-01 0.0000000000000000e+00  -2.5055075762074438e-02 -1.0304450027953985e-01 0.0000000000000000e+00  -2.4515767978196979e-02 -1.0066898261896172e-01 0.0000000000000000e+00  -2.3939149581411218e-02 -9.8285646170256674e-02 0.0000000000000000e+00  -2.3366377423194817e-02 -9.5875910425585173e-02 0.0000000000000000e+00  -2.2781522536898639e-02 -9.3465353216801036e-02 0.0000000000000000e+00  -2.2156292642201075e-02 -9.1032981481687605e-02 0.0000000000000000e+00  -2.1546023411910826e-02 -8.8562822411422507e-02 0.0000000000000000e+00  -2.0928920828624246e-02 -8.6091017911986048e-02 0.0000000000000000e+00  -2.0283457694322278e-02 -8.3591711555166245e-02 0.0000000000000000e+00  -1.9641893338295031e-02 -8.1064198662271367e-02 0.0000000000000000e+00  -1.8990748760302299e-02 -7.8540727067566207e-02 0.0000000000000000e+00  -1.8318166784312952e-02 -7.5992760433142459e-02 0.0000000000000000e+00  -1.7646760635951074e-02 -7.3436798167887243e-02 0.0000000000000000e+00  -1.6961639657878679e-02 -7.0904804561430099e-02 0.0000000000000000e+00  -1.6267066891470224e-02 -6.8372986944902472e-02 0.0000000000000000e+00  -1.5581336950896191e-02 -6.5860519843515611e-02 0.0000000000000000e+00  -1.4892990580442763e-02 -6.3399781208077211e-02 0.0000000000000000e+00  -1.4219904177390046e-02 -6.0976358222769263e-02 0.0000000000000000e+00  -1.3568693138837193e-02 -5.8588460287841516e-02 0.0000000000000000e+00  -1.2935001087057937e-02 -5.6265563098370469e-02 0.0000000000000000e+00  -1.2346583425004458e-02 -5.3997029533659084e-02 0.0000000000000000e+00  -1.1774426243486107e-02 -5.1750792210364258e-02 0.0000000000000000e+00  -1.1263379215524512e-02 -4.9558354158222760e-02 0.0000000000000000e+00  -1.0776851821768348e-02 -4.7428271933287011e-02 0.0000000000000000e+00  -1.0305902457548925e-02 -4.5308827173880753e-02 0.0000000000000000e+00  -9.8726522153635109e-03 -4.3243641850484515e-02 0.0000000000000000e+00  -9.4595272379678647e-03 -4.1196760793765719e-02 0.0000000000000000e+00  -9.0569244525968030e-03 -3.9198659748519431e-02 0.0000000000000000e+00  -8.6744175958039030e-03 -3.7254747156277107e-02 0.0000000000000000e+00  -8.2793026587560277e-03 -3.5348648415558633e-02 0.0000000000000000e+00  -7.8986669670134298e-03 -3.3496569816299449e-02 0.0000000000000000e+00  -7.5171303050400214e-03 -3.1698565832672256e-02 0.0000000000000000e+00  -7.1371225103478630e-03 -2.9962994015793363e-02 0.0000000000000000e+00  -6.7677356382468655e-03 -2.8289839885431850e-02 0.0000000000000000e+00  -6.4141571715982514e-03 -2.6661423815473637e-02 0.0000000000000000e+00  -6.0678743297680878e-03 -2.5100770536837149e-02 0.0000000000000000e+00  -5.7038230084059845e-03 -2.3593679205255794e-02 0.0000000000000000e+00  -5.3670778571935657e-03 -2.2155835846510364e-02 0.0000000000000000e+00  -5.0288092916364715e-03 -2.0790831863867102e-02 0.0000000000000000e+00  -4.7191123715522700e-03 -1.9474072124380081e-02 0.0000000000000000e+00  -4.4285778073971348e-03 -1.8225512528780560e-02 0.0000000000000000e+00  -4.1646700803337402e-03 -1.7012546205131283e-02 0.0000000000000000e+00  -3.9292650386661696e-03 -1.5846448883451471e-02 0.0000000000000000e+00  -3.6991998113216013e-03 -1.4715592915906581e-02 0.0000000000000000e+00  -3.5048515544878638e-03 -1.3608510276715219e-02 0.0000000000000000e+00  -3.3203547734038156e-03 -1.2537072314167843e-02 0.0000000000000000e+00  -3.1575713637669884e-03 -1.1477656000174061e-02 0.0000000000000000e+00  -3.0035748558885798e-03 -1.0450057561013436e-02 0.0000000000000000e+00  -2.8484390197143451e-03 -9.4279062275382467e-03 0.0000000000000000e+00  -2.7038325048964178e-03 -8.4382979551934287e-03 0.0000000000000000e+00  -2.5431934620642597e-03 -7.4744093941255564e-03 0.0000000000000000e+00  -2.3902216190855178e-03 -6.5368856220112586e-03 0.0000000000000000e+00  -2.2269665813409271e-03 -5.6488544151620896e-03 0.0000000000000000e+00  -2.0601627918666239e-03 -4.7908933511596570e-03 0.0000000000000000e+00  -1.8878022512885170e-03 -3.9930549726945831e-03 0.0000000000000000e+00  -1.6884558647780319e-03 -3.2407511472030189e-03 0.0000000000000000e+00  -1.5072147618975546e-03 -2.5579874629051672e-03 0.0000000000000000e+00  -1.2918705664205390e-03 -1.9429062063876085e-03 0.0000000000000000e+00  -1.0944440156271198e-03 -1.4241183036770326e-03 0.0000000000000000e+00  -8.6592517161557226e-04 -9.8634500903746415e-04 0.0000000000000000e+00  -6.5293711817892598e-04 -6.1346938419466561e-04 0.0000000000000000e+00  -4.4057324748060614e-04 -3.4505650093841943e-04 0.0000000000000000e+00  -2.2261293319787882e-04 -1.9564951741238586e-04 0.0000000000000000e+00  -2.6765462592752580e-02 -1.2196718701195164e-01 0.0000000000000000e+00  -2.2130829005428239e-02 -1.2284389777207824e-01 0.0000000000000000e+00  3.4671765215747371e-06 -2.0171915054852907e-04 0.0000000000000000e+00  -1.8054010681453351e-02 -9.5424229672372782e-02 0.0000000000000000e+00  -2.1252072883253419e-02 -1.0739526116657283e-01 0.0000000000000000e+00  -5.9869612546829400e-05 -1.7502259170448517e-03 0.0000000000000000e+00  -1.4270055214806461e-02 -8.0972484312480317e-02 0.0000000000000000e+00  -1.6196136350849537e-02 -8.8373286820932553e-02 0.0000000000000000e+00  -4.5104913766533472e-04 -4.1585445823658146e-03 0.0000000000000000e+00  -2.3025811784171481e-02 -1.1425271895335398e-01 0.0000000000000000e+00  -5.8798071467531989e-04 -7.0054842684435948e-03 0.0000000000000000e+00  -9.0305855955937939e-04 -1.2514242332197906e-02 0.0000000000000000e+00  -1.2337421481011572e-02 -7.3405747694996554e-02 0.0000000000000000e+00  -1.6129646183808337e-03 -1.6698883357799933e-02 0.0000000000000000e+00  -1.0399181544910227e-02 -6.5846729781339597e-02 0.0000000000000000e+00  -2.2297383229246824e-03 -2.0638799376107096e-02 0.0000000000000000e+00  -3.1530207550412711e-03 -2.6344828954391955e-02 0.0000000000000000e+00  -8.7448314754395365e-03 -5.8354204945660668e-02 0.0000000000000000e+00  -7.0960167276910959e-03 -5.1526517342192373e-02 0.0000000000000000e+00  -3.8792511229296272e-03 -3.1234413061702378e-02 0.0000000000000000e+00  -4.7765310635401433e-03 -3.6900956000572666e-02 0.0000000000000000e+00  -5.9561879678793530e-03 -4.4736539258688812e-02 0.0000000000000000e+00  -7.4302632141750344e-04 -8.9505995078024356e-03 0.0000000000000000e+00  -2.0051253621225649e-02 -1.0270972808077024e-01 0.0000000000000000e+00  -5.3387097389181026e-03 -4.0294667985809947e-02 0.0000000000000000e+00  -1.3073183491992791e-03 -1.4693827165987466e-02 0.0000000000000000e+00  -2.6920215269360041e-03 -2.3697688030422662e-02 0.0000000000000000e+00  -2.3574809086069425e-04 -2.8941621195802945e-03 0.0000000000000000e+00  -2.4449953201855296e-02 -1.1808260879679047e-01 0.0000000000000000e+00  5.2321661428046708e-05 -8.0807419103635383e-04 0.0000000000000000e+00  -6.7384135458102151e-03 -5.5120863261320117e-02 0.0000000000000000e+00  -1.0127439016337451e-02 -6.9670961095951681e-02 0.0000000000000000e+00  -1.2046154155688497e-02 -7.7274843788721889e-02 0.0000000000000000e+00  -4.2634870075579879e-03 -2.8663655126316110e-02 0.0000000000000000e+00  -8.2899429179910736e-03 -6.2215366219330874e-02 0.0000000000000000e+00  -1.3958248494762163e-02 -8.4768989924833282e-02 0.0000000000000000e+00  -5.5532037917011366e-03 -4.8408922168517575e-02 0.0000000000000000e+00  -1.5913895775745261e-02 -9.2063470999681152e-02 0.0000000000000000e+00  -5.1456197143851150e-03 -3.3938239582010074e-02 0.0000000000000000e+00  -2.4613689067671746e-03 -1.8451728810400077e-02 0.0000000000000000e+00  -8.6095743217480059e-04 -5.6777845001719464e-03 0.0000000000000000e+00  -2.3060619223966686e-02 -1.1055145621754570e-01 0.0000000000000000e+00  -2.0453362854914749e-02 -9.8679486352106535e-02 0.0000000000000000e+00  -2.9154647236224839e-04 -1.0654617361685633e-02 0.0000000000000000e+00  -1.6815590792582946e-02 -9.8352193508586455e-02 0.0000000000000000e+00  -1.7536284337167959e-03 -1.0971758124952394e-02 0.0000000000000000e+00  -1.9352312834155561e-02 -9.2533689753734133e-02 0.0000000000000000e+00  -1.7423243792309005e-02 -8.5223443434209623e-02 0.0000000000000000e+00  -1.5485752858244680e-02 -7.7733717447507455e-02 0.0000000000000000e+00  -2.0480898968141786e-02 -1.1212703106431476e-01 0.0000000000000000e+00  2.2089429677405912e-04 -5.3599051616364428e-03 0.0000000000000000e+00  -1.1530933660552141e-02 -6.2681756267137942e-02 0.0000000000000000e+00  -1.3503533184134263e-02 -7.0143619540459862e-02 0.0000000000000000e+00  -2.1840636196250656e-03 -2.8279271986413640e-02 0.0000000000000000e+00  -8.4003105236148113e-04 -1.8127528011968493e-02 0.0000000000000000e+00  -9.3220743148555718e-03 -5.3554844873143846e-02 0.0000000000000000e+00  -8.3382538169540568e-03 -4.8875344039983191e-02 0.0000000000000000e+00  -2.8625002040863923e-03 -3.3505900963281682e-02 0.0000000000000000e+00  -9.8947891285428545e-05 -9.5335294216990107e-05 0.0000000000000000e+00  5.7039099432181978e-05 -7.1714848318885066e-05 0.0000000000000000e+00  -4.1867909954138964e-03 -4.3367512240120226e-02 0.0000000000000000e+00  -3.4519253837671016e-03 -2.1561188870372266e-02 0.0000000000000000e+00  -2.0623461375530515e-03 -1.3213538281126988e-02 0.0000000000000000e+00  -6.5589960993257736e-04 -2.2208787551498883e-03 0.0000000000000000e+00  -8.6862863547633299e-04 -3.6324414172628772e-03 0.0000000000000000e+00  -3.5772706561398694e-03 -3.9209558038234636e-02 0.0000000000000000e+00  -2.3705380752570243e-03 -1.5371274306053624e-02 0.0000000000000000e+00  -4.0664973901340384e-03 -2.4528482962353628e-02 0.0000000000000000e+00  -1.4343274714467774e-03 -8.1768907580554145e-03 0.0000000000000000e+00  -1.8699194253107173e-02 -1.0487383215075831e-01 0.0000000000000000e+00  -2.2414393076731119e-02 -1.0433130415426563e-01 0.0000000000000000e+00  7.2136396104515536e-05 -8.2082965950408242e-03 0.0000000000000000e+00  -4.5244357376566765e-04 -1.0985360125196852e-03 0.0000000000000000e+00  -2.1100191541638336e-02 -1.1683804157403332e-01 0.0000000000000000e+00  -7.5078205777841349e-03 -4.2709365239517350e-02 0.0000000000000000e+00  -6.6219085916741144e-03 -3.8521542672907270e-02 0.0000000000000000e+00  -9.3990725270184079e-05 -1.3337507949582187e-02 0.0000000000000000e+00  3.8706557028126088e-04 -2.2210811109929689e-03 0.0000000000000000e+00  4.0358136717745952e-04 -3.7358281467124877e-03 0.0000000000000000e+00  -1.1790145524642494e-03 -2.1989747249091300e-02 0.0000000000000000e+00  -2.2775782196440611e-04 -1.5584437140620635e-02 0.0000000000000000e+00  -1.3657594975013388e-03 -2.4945883755136799e-02 0.0000000000000000e+00  -2.8656755277623895e-04 -5.9354410139815365e-04 0.0000000000000000e+00  -2.2076857443150712e-02 -1.2009107293982633e-01 0.0000000000000000e+00  -1.8843615344771844e-02 -8.9653073377773659e-02 0.0000000000000000e+00  -1.6919117178388701e-02 -8.2263314507383389e-02 0.0000000000000000e+00  2.5108503736058577e-04 -6.4284215507490246e-03 0.0000000000000000e+00  -1.4963790990588798e-02 -7.4708895040637324e-02 0.0000000000000000e+00  -1.9599150218711021e-02 -1.0942530060058182e-01 0.0000000000000000e+00  -1.2965774192418117e-02 -6.7135622294614034e-02 0.0000000000000000e+00  -1.1049468644860307e-02 -5.9817189694048006e-02 0.0000000000000000e+00  -9.2196060302981043e-04 -1.9654783591819113e-02 0.0000000000000000e+00  -1.0146919707775171e-02 -5.6182277636185843e-02 0.0000000000000000e+00  -2.2925987227215036e-03 -3.0298366015311769e-02 0.0000000000000000e+00  -8.0831079252334532e-03 -4.6296227638185257e-02 0.0000000000000000e+00  -2.9797767245320966e-03 -3.5731492979070710e-02 0.0000000000000000e+00  -2.5166289624142107e-02 -1.1570014260755292e-01 0.0000000000000000e+00  -1.7311141663444940e-02 -1.0115211903253919e-01 0.0000000000000000e+00  -1.7375408965000507e-03 -9.7611676441355898e-03 0.0000000000000000e+00  3.4373936780040138e-04 -1.2005527265982856e-03 0.0000000000000000e+00  1.9243707794634195e-04 -4.7723403631092334e-04 0.0000000000000000e+00  -5.2465586637223975e-03 -5.3133052266499899e-02 0.0000000000000000e+00  -6.2475510550413366e-03 -3.5553333090215682e-02 0.0000000000000000e+00  -6.6101395065716389e-03 -6.0122015904493190e-02 0.0000000000000000e+00  -1.2135694415944058e-02 -8.2624058348908166e-02 0.0000000000000000e+00  -8.3659634103027541e-03 -6.7474520437818597e-02 0.0000000000000000e+00  -1.0239731633287388e-02 -7.5075261374421554e-02 0.0000000000000000e+00  -5.0912858384843255e-03 -3.0283387083021050e-02 0.0000000000000000e+00  -4.3089488023496623e-03 -4.6544543550684991e-02 0.0000000000000000e+00  -3.2436574066515762e-03 -1.9576883096893736e-02 0.0000000000000000e+00  -4.7414241755654798e-03 -2.6958124658880301e-02 0.0000000000000000e+00  -1.5322259558120810e-02 -9.4640160416788729e-02 0.0000000000000000e+00  -2.8495385854643345e-03 -1.7195540634762179e-02 0.0000000000000000e+00  -1.4409967651780672e-02 -8.9814579476775624e-02 0.0000000000000000e+00  -1.3548783515991525e-03 -6.5035418485540637e-03 0.0000000000000000e+00  -1.1662608059300889e-03 -4.8205693912475719e-03 0.0000000000000000e+00  -2.4538695309626286e-02 -1.1246863343535318e-01 0.0000000000000000e+00  -2.3668453360097100e-02 -1.0810302687611920e-01 0.0000000000000000e+00  -1.2032261949586202e-02 -8.0055514111717019e-02 0.0000000000000000e+00  -1.0125549765992498e-02 -7.2469188643011245e-02 0.0000000000000000e+00  -6.4851309026522390e-03 -5.7620661308536922e-02 0.0000000000000000e+00  -1.3808220085298882e-02 -8.7431658710781873e-02 0.0000000000000000e+00  -8.2630436307314092e-03 -6.4920321830582509e-02 0.0000000000000000e+00  -5.1865402075675438e-03 -5.0777818511478723e-02 0.0000000000000000e+00  -5.3717115139531686e-03 -3.1997767612218092e-02 0.0000000000000000e+00  1.5592593992531562e-04 -9.7013950440216403e-03 0.0000000000000000e+00  -2.1927086145496485e-02 -1.0079444365040467e-01 0.0000000000000000e+00  -2.0694565456419418e-02 -9.6295295665303399e-02 0.0000000000000000e+00  -3.6