<?xml version="1.0"?>
<VTKFile type="UnstructuredGrid"  version="0.1"  >
<UnstructuredGrid>
<Piece  NumberOfPoints="439" NumberOfCells="725">
<Points>
<DataArray  type="Float64"  NumberOfComponents="3"  format="ascii">0.5598188233150251 0.05473823992997494 0  0.5704219442864551 0.07125559888370009 0  0.2489897949 0.21 0  0.2489897949 0.19 0  0.5651206715868123 0.06299689113953492 0  0.2496355385699469 0.2060260530378829 0  0.249959460510575 0.2020130349814059 0  0.2499594605105767 0.1979869650186357 0  0.24963553856995 0.1939739469621422 0  0.254100263673967 0.2098568175647902 0  0.2592290914082589 0.2096935472992711 0  0.2643555399378608 0.2094830066020022 0  0.2694679324169404 0.2091281872293234 0  0.274567062669668 0.2086938118713956 0  0.279666376193537 0.2081474735120467 0  0.2847422215033939 0.2075419539984391 0  0.2897916204451583 0.2068342029919362 0  0.2948330903560776 0.206044234662418 0  0.2998525664341154 0.2051729135825446 0  0.3048637010234387 0.2041907957846074 0  0.309870430603318 0.2031895020181829 0  0.3148299786866326 0.2020678631483903 0  0.3198006086731555 0.2008752856594992 0  0.3247235311837228 0.1996261901968049 0  0.3296305793011569 0.1982866391480665 0  0.3345149710800913 0.1968967589105267 0  0.3393687234421782 0.1954219126478616 0  0.3441978077884431 0.1939130959405564 0  0.3490021207985964 0.1923319392113111 0  0.3537801663830172 0.1907022336710987 0  0.3585303682557637 0.1890251572090317 0  0.3632579250934899 0.1872669139729429 0  0.3679802175243576 0.1854955479327496 0  0.3726599469602906 0.183656104733056 0  0.3773175531226 0.1817882601331576 0  0.381949465433132 0.17986718493764 0  0.386557799772029 0.1779086425156275 0  0.3911404825384486 0.1759149503767839 0  0.3957032178252783 0.1738585640371719 0  0.4002626844483647 0.1717965424932577 0  0.4047824520015555 0.1696847912222806 0  0.4092870149825774 0.1675298685452211 0  0.4137860535141618 0.1653650387866901 0  0.4182522345598947 0.1631547451848689 0  0.422716083130812 0.1609181495123876 0  0.4271528142645114 0.1586542906281819 0  0.4315818545975778 0.1563534954865906 0  0.4359894171766741 0.1540342817463651 0  0.4403784735425976 0.1516827787492721 0  0.4447576522249395 0.1493054246873814 0  0.4491225990596673 0.1468982855262283 0  0.4534668089916771 0.1444663665474035 0  0.4578021812514061 0.1420082120794561 0  0.4621230992774857 0.1395209894202865 0  0.4664248962074871 0.1370101718757984 0  0.4707171643778938 0.1344760098667341 0  0.4749958747373162 0.131915973142241 0  0.4792583236158752 0.1293376312632122 0  0.4835115930027251 0.1267412465033154 0  0.4877520072510177 0.1241255198213 0  0.4919779776724864 0.1214974282231423 0  0.4961946174568423 0.1188584706478576 0  0.5003983712449545 0.1162077900428528 0  0.5045894459563948 0.1135518040573192 0  0.5087709534688128 0.110890997705337 0  0.5129395065397058 0.1082260236662253 0  0.5170954610731127 0.1055611852134067 0  0.5212418561866071 0.1028965513871871 0  0.525377128871516 0.1002361946957092 0  0.5294996075122466 0.09758142134864591 0  0.5336176850990294 0.09492688332931087 0  0.5377245429725634 0.09227967809689713 0  0.5418224296664066 0.0896357094799386 0  0.5459170319898237 0.08699847659946187 0  0.5500042735851819 0.08436849346874446 0  0.5540904077312349 0.08173957773777669 0  0.5581745754068224 0.0791166654057494 0  0.5622562271345573 0.07649621117510001 0  0.5663390025035876 0.07387537378516604 0  0.5557347757347936 0.05735958538285561 0  0.5516495336997428 0.05997952040642138 0  0.5475641518686586 0.06259848732433006 0  0.5434764641217534 0.06521570688256949 0  0.53938499228265 0.06783347908867278 0  0.535290793326464 0.07044932590503118 0  0.5311896101462196 0.07306649566436817 0  0.5270816073274153 0.07568330452882757 0  0.5229684775530619 0.07830230820696552 0  0.5188462608297241 0.08092387691807994 0  0.5147186581598753 0.08354567213623912 0  0.5105834336920476 0.08617200421421801 0  0.5064391964582277 0.08879991539504976 0  0.5022928225292486 0.09142561462579332 0  0.4981385252057589 0.09405290253821984 0  0.4939781611020059 0.09667471095939816 0  0.489817453739648 0.0992938556869427 0  0.4856483673873007 0.1019064448007773 0  0.4814761931659692 0.1045038691399495 0  0.4773055590836751 0.1070970065356398 0  0.4731241184023358 0.1096722365701269 0  0.4689397317406955 0.1122216251949556 0  0.4647576939839014 0.1147642311184205 0  0.4605595753063603 0.1172786730892667 0  0.4563555564321902 0.1197585773139724 0  0.4521516031123863 0.1222261637929289 0  0.4479312566553118 0.1246634765478761 0  0.4436990866618983 0.1270608850974997 0  0.4394647370579162 0.1294505710873694 0  0.4352026602425064 0.1318046987709802 0  0.4309314249550502 0.1341150810600274 0  0.4266588519124464 0.1364151989479201 0  0.4223623082861925 0.1386760531460736 0  0.4180533936100359 0.1409186357744095 0  0.4137315922769315 0.1431289612301618 0  0.4093907686694302 0.1453022612841285 0  0.405050209294843 0.1474519583040327 0  0.4006897107198841 0.149564847863109 0  0.3963231638769408 0.1516435599207152 0  0.3919451704481859 0.1536830428338005 0  0.3875493078779507 0.1556825478086139 0  0.3831336161932819 0.1576539660335204 0  0.3786989588950592 0.1595796404425902 0  0.3742707774685092 0.1614654289058325 0  0.3698052662549882 0.1633062891393327 0  0.3653373713241506 0.1650906803392911 0  0.3608395119011799 0.1668440927768093 0  0.3563263575637254 0.1685374864856551 0  0.351790853673361 0.1701986141825184 0  0.3472342460519168 0.171803314488384 0  0.3426902744257145 0.173361713647661 0  0.3381063201324945 0.1748655679223159 0  0.3335298927940814 0.1762975804166845 0  0.3289132485612615 0.1776848954930683 0  0.3242858911363559 0.1789818486126725 0  0.319662266554229 0.1802584000200042 0  0.3150057854802608 0.1814398617872176 0  0.3103703694682861 0.1825529685847302 0  0.3056912061146506 0.1836056735721141 0  0.3010055367178489 0.1845623869903051 0  0.2963033765570842 0.1854678959037149 0  0.2915867361334313 0.1862817975668835 0  0.2868925190297263 0.1870316040283169 0  0.2821555295079721 0.1876987543019039 0  0.2774457330447882 0.188279793836138 0  0.2727028931771573 0.1887615654337744 0  0.2679829232883786 0.1891573301119871 0  0.2632398460650566 0.1894901666998568 0  0.2584915068131476 0.1897217361551081 0  0.2537429138053379 0.1898387737965512 0  0.5624698133939281 0.05886753111743109 0  0.5677716860972093 0.06712663762637845 0  0.2589838900055533 0.2004051453421732 0  0.51798055773699 0.0932054238009206 0  0.5388493386796944 0.07980475921085908 0  0.2774434518465302 0.1992680517527645 0  0.4932794850928652 0.1088021053739249 0  0.5057944044045068 0.1008706702202005 0  0.2941347437995481 0.1954115436390128 0  0.5506512971812236 0.07174344803300686 0  0.3098487267792501 0.1930172850394388 0  0.3357678083705828 0.1870340155039593 0  0.4806960238331203 0.1166597155664774 0  0.3528694371827764 0.180501032051517 0  0.4680398560966245 0.124372135448566 0  0.3673185437655129 0.1751375786156696 0  0.384915603145757 0.1678172909293046 0  0.454796744158138 0.1317509194876504 0  0.4421601177038131 0.1393991278369657 0  0.3980642249560674 0.1619992282719142 0  0.4116450575961038 0.1553667300307676 0  0.4286138132793514 0.1466918897408016 0  0.3194200773742825 0.1907750755427212 0  0.530698717067993 0.08505027490376996 0  0.4191524777949611 0.1514310049420273 0  0.3448698388371285 0.1834154187765953 0  0.3771830496912411 0.1712865277066966 0  0.2859049272805276 0.1974182569498723 0  0.5568571713790573 0.06625168438270231 0  0.2680650924456646 0.2010042493449656 0  0.4497060343603157 0.1377589183136577 0  0.4752734331461083 0.1227358686263053 0  0.4879154120130523 0.1149324628114532 0  0.3907338571374826 0.1627803918260121 0  0.462544123794094 0.1303614090957025 0  0.5004798821852489 0.1070186937264486 0  0.4367401625320828 0.1449116930444405 0  0.5129663944869476 0.09906186416111934 0  0.4040465175686672 0.1565697104384177 0  0.3590410096652352 0.1758644989751158 0  0.3025293142267604 0.1922739336124978 0  0.5434992143748137 0.07423328717383786 0  0.5225590138073506 0.08690439942732249 0  0.3278444083165321 0.1914723738730827 0  0.5244300384279431 0.09358962828146752 0  0.3279996027175464 0.1844358987093614 0  0.5115416860862468 0.09275700598701923 0  0.499080583275796 0.1006791494515989 0  0.4865590713711889 0.1085673993553632 0  0.5485651421532702 0.0781369623909291 0  0.3015409773959598 0.1987070021565934 0  0.4613394867115878 0.1239681111500079 0  0.4739820698270378 0.1163542136039473 0  0.3912340988281194 0.1692422231599947 0  0.359101553111799 0.1823600495522137 0  0.4448181401492515 0.1334923699163944 0  0.4357615330186535 0.1384943673685322 0  0.4047040683584628 0.1630176490421133 0  0.2556985729143176 0.196022446377675 0  0.2550699049575896 0.203396881578398 0  0.4269054494732109 0.1518374931155795 0  0.3695183066432713 0.1701837189957726 0  0.3378050755392017 0.1813778723905469 0  0.280706697150606 0.1940789034086359 0  0.2904558776418678 0.1927367803827243 0  0.417960031489608 0.1566048048791268 0  0.3467771281470503 0.1784344064914489 0  0.3787070353607497 0.1661968937065088 0  0.3150123184824176 0.1878805441682602 0  0.5358304344000759 0.08620063811661832 0  0.5319690786053892 0.07965822159583416 0  0.3164157306260614 0.195478549875916 0  0.270685459289047 0.1950393095846013 0  0.5571364366482398 0.07362649696140189 0  0.4229784955365711 0.1445402600766887 0  0.4140596922229151 0.1495619744133269 0  0.3400596791590607 0.1898317035852134 0  0.2813179590070559 0.2027932412378044 0  0.2919252140184602 0.2013077054919531 0  0.372719119965923 0.1778269936683479 0  0.349459223651601 0.1871416319789715 0  0.3820145227603081 0.1746649866991213 0  0.2645632993667823 0.1957257067292706 0  0.5625760314582436 0.06934220057078395 0  0.5063999809488278 0.09546603098116926 0  0.4939142638320404 0.1033780675099415 0  0.3073901437478308 0.1980031083136343 0  0.481372609676894 0.111231267646971 0  0.544007773992221 0.08161264274408968 0  0.4687752528332415 0.1189545729311287 0  0.4561417642994505 0.1264561336338
[...]
<PointData  Vectors="d"> 
<DataArray  type="Float64"  Name="d"  NumberOfComponents="3" format="ascii">-4.0181176684974784e-02 -1.3526176007002511e-01 0.0000000000000000e+00  -2.9578055713544858e-02 -1.3874440111629993e-01 0.0000000000000000e+00  0.0000000000000000e+00 0.0000000000000000e+00 0.0000000000000000e+00  0.0000000000000000e+00 0.0000000000000000e+00 0.0000000000000000e+00  -3.4879328413187860e-02 -1.3700310886046513e-01 0.0000000000000000e+00  0.0000000000000000e+00 0.0000000000000000e+00 0.0000000000000000e+00  0.0000000000000000e+00 0.0000000000000000e+00 0.0000000000000000e+00  0.0000000000000000e+00 0.0000000000000000e+00 0.0000000000000000e+00  0.0000000000000000e+00 0.0000000000000000e+00 0.0000000000000000e+00  1.6666306833776795e-04 -1.4318243520979537e-04 0.0000000000000000e+00  3.5168509700469396e-04 -3.0645270072892690e-04 0.0000000000000000e+00  5.3432792096862810e-04 -5.1699339799780245e-04 0.0000000000000000e+00  7.0291469441040961e-04 -8.7181277067663408e-04 0.0000000000000000e+00  8.5823924151111548e-04 -1.3061881286044420e-03 0.0000000000000000e+00  1.0137470597616125e-03 -1.8525264879532782e-03 0.0000000000000000e+00  1.1457866640002816e-03 -2.4580460015608640e-03 0.0000000000000000e+00  1.2513799001417040e-03 -3.1657970080637941e-03 0.0000000000000000e+00  1.3490441054254132e-03 -3.9557653375819225e-03 0.0000000000000000e+00  1.4247144778444987e-03 -4.8270864174554534e-03 0.0000000000000000e+00  1.4920433615389340e-03 -5.8092042153926196e-03 0.0000000000000000e+00  1.5549672357999672e-03 -6.8104979818170673e-03 0.0000000000000000e+00  1.5707096134959695e-03 -7.9321368516097855e-03 0.0000000000000000e+00  1.5975338944005416e-03 -9.1247143405008124e-03 0.0000000000000000e+00  1.5766506993495821e-03 -1.0373809803195091e-02 0.0000000000000000e+00  1.5398931111651399e-03 -1.1713360851933495e-02 0.0000000000000000e+00  1.4804791844706042e-03 -1.3103241089473342e-02 0.0000000000000000e+00  1.3904258409496845e-03 -1.4578087352138391e-02 0.0000000000000000e+00  1.2757044815855606e-03 -1.6086904059443598e-02 0.0000000000000000e+00  1.1362117861203780e-03 -1.7668060788688836e-02 0.0000000000000000e+00  9.7045166492279423e-04 -1.9297766328901334e-02 0.0000000000000000e+00  7.7684783205104774e-04 -2.0974842790968395e-02 0.0000000000000000e+00  5.6059896415888981e-04 -2.2733086027057002e-02 0.0000000000000000e+00  3.3908568940806659e-04 -2.4504452067250441e-02 0.0000000000000000e+00  7.5009419711898143e-05 -2.6343895266943935e-02 0.0000000000000000e+00  -2.1119012358775157e-04 -2.8211739866842389e-02 0.0000000000000000e+00  -5.2308351868015582e-04 -3.0132815062359982e-02 0.0000000000000000e+00  -8.5855488540475275e-04 -3.2091357484372453e-02 0.0000000000000000e+00  -1.2196778246146549e-03 -3.4085049623216138e-02 0.0000000000000000e+00  -1.6007482433923570e-03 -3.6141435962828122e-02 0.0000000000000000e+00  -1.9850873259338302e-03 -3.8203457506742332e-02 0.0000000000000000e+00  -2.4091254783552441e-03 -4.0315208777719443e-02 0.0000000000000000e+00  -2.8483682029535979e-03 -4.2470131454778938e-02 0.0000000000000000e+00  -3.2931353769900598e-03 -4.4634961213309919e-02 0.0000000000000000e+00  -3.7707600368688675e-03 -4.6845254815131118e-02 0.0000000000000000e+00  -4.2507171715798668e-03 -4.9081850487612377e-02 0.0000000000000000e+00  -4.7577917435136681e-03 -5.1345709371818093e-02 0.0000000000000000e+00  -5.2725571160995317e-03 -5.3646504513409410e-02 0.0000000000000000e+00  -5.8088002426588325e-03 -5.5965718253634875e-02 0.0000000000000000e+00  -6.3635495823993480e-03 -5.8317221250727858e-02 0.0000000000000000e+00  -6.9281766057050238e-03 -6.0694575312618577e-02 0.0000000000000000e+00  -7.5070354766191890e-03 -6.3101714473771817e-02 0.0000000000000000e+00  -8.1066312502389125e-03 -6.5533633452596551e-02 0.0000000000000000e+00  -8.7150646961604676e-03 -6.7991787920543945e-02 0.0000000000000000e+00  -9.3379523757141439e-03 -7.0479010579713508e-02 0.0000000000000000e+00  -9.9799611513796457e-03 -7.2989828124201586e-02 0.0000000000000000e+00  -1.0631498686619546e-02 -7.5523990133265897e-02 0.0000000000000000e+00  -1.1296594032859856e-02 -7.8084026857758990e-02 0.0000000000000000e+00  -1.1977950859931410e-02 -8.0662368736787837e-02 0.0000000000000000e+00  -1.2668487178735909e-02 -8.3258753496684532e-02 0.0000000000000000e+00  -1.3371878636071819e-02 -8.5874480178699947e-02 0.0000000000000000e+00  -1.4089713920262805e-02 -8.8502571776857733e-02 0.0000000000000000e+00  -1.4816879841545236e-02 -9.1141529352142384e-02 0.0000000000000000e+00  -1.5556931759049446e-02 -9.3792209957147182e-02 0.0000000000000000e+00  -1.6309662753246565e-02 -9.6448195942680823e-02 0.0000000000000000e+00  -1.7071960946487712e-02 -9.9109002294662893e-02 0.0000000000000000e+00  -1.7847213581233305e-02 -1.0177397633377466e-01 0.0000000000000000e+00  -1.8635064753485968e-02 -1.0443881478659334e-01 0.0000000000000000e+00  -1.9432475345629412e-02 -1.0710344861281283e-01 0.0000000000000000e+00  -2.0241008366336993e-02 -1.0976380530429078e-01 0.0000000000000000e+00  -2.1062335431244292e-02 -1.1241857865135413e-01 0.0000000000000000e+00  -2.1888063550116379e-02 -1.1507311667068908e-01 0.0000000000000000e+00  -2.2725011382225178e-02 -1.1772032190310291e-01 0.0000000000000000e+00  -2.3570930394041515e-02 -1.2036429052006137e-01 0.0000000000000000e+00  -2.4420133776287715e-02 -1.2300152340053809e-01 0.0000000000000000e+00  -2.5276697886564115e-02 -1.2563150653125557e-01 0.0000000000000000e+00  -2.6134369446148824e-02 -1.2826042226222334e-01 0.0000000000000000e+00  -2.6994007476211803e-02 -1.3088333459425058e-01 0.0000000000000000e+00  -2.7856161454123504e-02 -1.3350378882490002e-01 0.0000000000000000e+00  -2.8717191790752935e-02 -1.3612462621483398e-01 0.0000000000000000e+00  -3.9321418559589372e-02 -1.3264041461714435e-01 0.0000000000000000e+00  -3.8462854889015262e-02 -1.3002047959357863e-01 0.0000000000000000e+00  -3.7604431014460676e-02 -1.2740151267566993e-01 0.0000000000000000e+00  -3.6748313055719233e-02 -1.2478429311743050e-01 0.0000000000000000e+00  -3.5895979189201357e-02 -1.2216652091132724e-01 0.0000000000000000e+00  -3.5046372439767264e-02 -1.1955067409496886e-01 0.0000000000000000e+00  -3.4203749914398528e-02 -1.1693350433563186e-01 0.0000000000000000e+00  -3.3367947027573501e-02 -1.1431669547117242e-01 0.0000000000000000e+00  -3.2537271096296040e-02 -1.1169769179303451e-01 0.0000000000000000e+00  -3.1715682113979557e-02 -1.0907612308192005e-01 0.0000000000000000e+00  -3.0899479078229160e-02 -1.0645432786376084e-01 0.0000000000000000e+00  -3.0090897840457462e-02 -1.0382799578578202e-01 0.0000000000000000e+00  -2.9291329368668288e-02 -1.0120008460495031e-01 0.0000000000000000e+00  -2.8493897592014247e-02 -9.8574385374206652e-02 0.0000000000000000e+00  -2.7704389209903948e-02 -9.5947097461780123e-02 0.0000000000000000e+00  -2.6920947608018612e-02 -9.3325289040601805e-02 0.0000000000000000e+00  -2.6137849264773871e-02 -9.0706144313057319e-02 0.0000000000000000e+00  -2.5363129911521932e-02 -8.8093555199222684e-02 0.0000000000000000e+00  -2.4591498427248420e-02 -8.5496130860050548e-02 0.0000000000000000e+00  -2.3818326803905381e-02 -8.2902993464360183e-02 0.0000000000000000e+00  -2.3055961779636171e-02 -8.0327763429873092e-02 0.0000000000000000e+00  -2.2296542735657652e-02 -7.7778374805044362e-02 0.0000000000000000e+00  -2.1534774786832949e-02 -7.5235768881579457e-02 0.0000000000000000e+00  -2.0789087758744173e-02 -7.2721326910733339e-02 0.0000000000000000e+00  -2.0049300927306429e-02 -7.0241422686027594e-02 0.0000000000000000e+00  -1.9309448541481981e-02 -6.7773836207071059e-02 0.0000000000000000e+00  -1.8585989292943694e-02 -6.5336523452123915e-02 0.0000000000000000e+00  -1.7874353580736625e-02 -6.2939114902500259e-02 0.0000000000000000e+00  -1.7164897479094079e-02 -6.0549428912630571e-02 0.0000000000000000e+00  -1.6483168588874404e-02 -5.8195301229019801e-02 0.0000000000000000e+00  -1.5810598170721484e-02 -5.5884918939972612e-02 0.0000000000000000e+00  -1.5139365507700179e-02 -5.3584801052079863e-02 0.0000000000000000e+00  -1.4492103428337115e-02 -5.1323946853926432e-02 0.0000000000000000e+00  -1.3857212398877189e-02 -4.9081364225590486e-02 0.0000000000000000e+00  -1.3235208026355102e-02 -4.6871038769838141e-02 0.0000000000000000e+00  -1.2632225928218046e-02 -4.4697738715871502e-02 0.0000000000000000e+00  -1.2028979597162653e-02 -4.2548041695967292e-02 0.0000000000000000e+00  -1.1445672466475331e-02 -4.0435152136891042e-02 0.0000000000000000e+00  -1.0868413603758759e-02 -3.8356440079284813e-02 0.0000000000000000e+00  -1.0302601326861898e-02 -3.6316957166199572e-02 0.0000000000000000e+00  -9.7546581914395285e-03 -3.4317452191386114e-02 0.0000000000000000e+00  -9.2265441704727814e-03 -3.2346033966479552e-02 0.0000000000000000e+00  -8.7173957630490451e-03 -3.0420359557409814e-02 0.0000000000000000e+00  -8.2017714839729798e-03 -2.8534571094167498e-02 0.0000000000000000e+00  -7.7234769918376857e-03 -2.6693710860667318e-02 0.0000000000000000e+00  -7.2475662170266679e-03 -2.4909319660708893e-02 0.0000000000000000e+00  -6.8016199343284905e-03 -2.3155907223190709e-02 0.0000000000000000e+00  -6.3709685661360168e-03 -2.1462513514344916e-02 0.0000000000000000e+00  -5.9626667508497671e-03 -1.9801385817481528e-02 0.0000000000000000e+00  -5.5754686666722019e-03 -1.8196685511616077e-02 0.0000000000000000e+00  -5.1756345872164666e-03 -1.6638286352339052e-02 0.0000000000000000e+00  -4.8157831747973863e-03 -1.5134432077684069e-02 0.0000000000000000e+00  -4.4484048075721285e-03 -1.3702419583315520e-02 0.0000000000000000e+00  -4.1212433347536347e-03 -1.2315104506931698e-02 0.0000000000000000e+00  -3.8047950540190359e-03 -1.1018151387327479e-02 0.0000000000000000e+00  -3.4846139304882196e-03 -9.7415999799957600e-03 0.0000000000000000e+00  -3.1972892987981506e-03 -8.5601382127823700e-03 0.0000000000000000e+00  -2.8888996051151293e-03 -7.4470314152699163e-03 0.0000000000000000e+00  -2.6242572531074665e-03 -6.3943264278858913e-03 0.0000000000000000e+00  -2.3661209442706723e-03 -5.4376130096948075e-03 0.0000000000000000e+00  -2.1244753993970474e-03 -4.5321040962850809e-03 0.0000000000000000e+00  -1.8973101174117987e-03 -3.7182024331165594e-03 0.0000000000000000e+00  -1.6477215154609888e-03 -2.9683959716831246e-03 0.0000000000000000e+00  -1.4409053315574836e-03 -2.3012456980960466e-03 0.0000000000000000e+00  -1.2068960890834288e-03 -1.7202061638620059e-03 0.0000000000000000e+00  -1.0059302510670549e-03 -1.2384345662255975e-03 0.0000000000000000e+00  -7.8209443420742012e-04 -8.4266988801292154e-04 0.0000000000000000e+00  -5.8136595189102783e-04 -5.0983330014313041e-04 0.0000000000000000e+00  -3.8589949816153919e-04 -2.7826384489187841e-04 0.0000000000000000e+00  -1.9068680032014365e-04 -1.6122620344878843e-04 0.0000000000000000e+00  -3.7530186606071846e-02 -1.3613246888254721e-01 0.0000000000000000e+00  -3.2228313902790816e-02 -1.3787336237359443e-01 0.0000000000000000e+00  1.0463473903987926e-05 -1.4724400066711376e-04 0.0000000000000000e+00  -2.5165676648317477e-02 -1.0679457619904839e-01 0.0000000000000000e+00  -2.9390450797121524e-02 -1.2016569937003961e-01 0.0000000000000000e+00  -7.9408652722138223e-06 -1.5261401894281659e-03 0.0000000000000000e+00  -2.0570098284031710e-02 -9.1100237275167029e-02 0.0000000000000000e+00  -2.2886596089231121e-02 -9.9031672428896322e-02 0.0000000000000000e+00  -3.7615140621658107e-04 -3.8796472015258108e-03 0.0000000000000000e+00  -3.2126785957268880e-02 -1.2779953206732805e-01 0.0000000000000000e+00  -5.6411287767548358e-04 -6.9531735414589567e-03 0.0000000000000000e+00  -1.2323671712722109e-03 -1.3795445739437470e-02 0.0000000000000000e+00  -1.8322142426925717e-02 -8.3242627082612722e-02 0.0000000000000000e+00  -2.4121803881280534e-03 -1.9498967948543840e-02 0.0000000000000000e+00  -1.6146893046568130e-02 -7.5530207200518854e-02 0.0000000000000000e+00  -3.4188276250421792e-03 -2.4876659079699336e-02 0.0000000000000000e+00  -4.9726543644925646e-03 -3.2182709070778262e-02 0.0000000000000000e+00  -1.4189010891135414e-02 -6.7790752938018978e-02 0.0000000000000000e+00  -1.1997613980383435e-02 -6.0600872162943971e-02 0.0000000000000000e+00  -6.2892664457657715e-03 -3.8098429079010197e-02 0.0000000000000000e+00  -7.9060341478530225e-03 -4.4633269969338196e-02 0.0000000000000000e+00  -1.0088164585099719e-02 -5.3293872563875674e-02 0.0000000000000000e+00  -8.2719765138784894e-04 -9.2338086719186835e-03 0.0000000000000000e+00  -2.7706637040092116e-02 -1.1494084088158776e-01 0.0000000000000000e+00  -8.9142368937523680e-03 -4.8417899878796800e-02 0.0000000000000000e+00  -1.8961557894189645e-03 -1.6735676402842136e-02 0.0000000000000000e+00  -4.1895848746496631e-03 -2.8864567472755405e-02 0.0000000000000000e+00  -1.6341041168224280e-04 -2.6232876207458351e-03 0.0000000000000000e+00  -3.4265209799062106e-02 -1.3199323155217207e-01 0.0000000000000000e+00  7.5776299801939731e-05 -6.7087630176340500e-04 0.0000000000000000e+00  -1.1867405882312167e-02 -6.4491445015142659e-02 0.0000000000000000e+00  -1.5962841330236940e-02 -7.9514494702503838e-02 0.0000000000000000e+00  -1.8152279580146129e-02 -8.7317900517358590e-02 0.0000000000000000e+00  -6.5701089311948728e-03 -3.4969244845184440e-02 0.0000000000000000e+00  -1.3860733565395583e-02 -7.1888954233102598e-02 0.0000000000000000e+00  -2.0419226524796736e-02 -9.5231669602369826e-02 0.0000000000000000e+00  -1.0001860593682724e-02 -5.7338670284359392e-02 0.0000000000000000e+00  -2.2764131339937106e-02 -1.0318849916770045e-01 0.0000000000000000e+00  -8.0888656168643658e-03 -4.1179926232780009e-02 0.0000000000000000e+00  -3.6563164641000168e-03 -2.1885137696076057e-02 0.0000000000000000e+00  -8.4234343513572591e-04 -5.4757030586890260e-03 0.0000000000000000e+00  -3.1781757097009138e-02 -1.2351634949731244e-01 0.0000000000000000e+00  -2.7900842111705428e-02 -1.1022407904644418e-01 0.0000000000000000e+00  -3.4836489815213441e-04 -1.1399147653157976e-02 0.0000000000000000e+00  -2.3987863621802944e-02 -1.1025069328800879e-01 0.0000000000000000e+00  -2.2351243664523596e-03 -1.1723779721187681e-02 0.0000000000000000e+00  -2.6379399137564426e-02 -1.0336817567739177e-01 0.0000000000000000e+00  -2.4009084831169161e-02 -9.5446032212806925e-02 0.0000000000000000e+00  -2.1699179618933293e-02 -8.7557782309046608e-02 0.0000000000000000e+00  -2.8906388715439039e-02 -1.2573785594465961e-01 0.0000000000000000e+00  3.5987913100494855e-04 -5.1678161790003219e-03 0.0000000000000000e+00  -1.7255930044823346e-02 -7.2157070514396141e-02 0.0000000000000000e+00  -1.9444764046229197e-02 -7.9770968060458941e-02 0.0000000000000000e+00  -3.8793078436436981e-03 -3.4632595175601924e-02 0.0000000000000000e+00  -1.4052136206127647e-03 -2.1514768783381336e-02 0.0000000000000000e+00  -1.4564740696463031e-02 -6.2632811748004877e-02 0.0000000000000000e+00  -1.3171049504026968e-02 -5.7630814295868499e-02 0.0000000000000000e+00  -5.2407554301592022e-03 -4.0857169293485707e-02 0.0000000000000000e+00  -8.7727065879446886e-05 -6.3390648054440163e-05 0.0000000000000000e+00  5.5168926649894158e-05 -4.5761420713489055e-05 0.0000000000000000e+00  -7.8976981732580536e-03 -5.1936264648575883e-02 0.0000000000000000e+00  -5.1178949651386378e-03 -2.6042523240082653e-02 0.0000000000000000e+00  -2.8207610472289197e-03 -1.4668919803442083e-02 0.0000000000000000e+00  -5.9347096837735445e-04 -1.9678887854142103e-03 0.0000000000000000e+00  -8.1276110212154479e-04 -3.3448524822039605e-03 0.0000000000000000e+00  -6.7105020923812547e-03 -4.7348402926827619e-02 0.0000000000000000e+00  -3.3850475858627745e-03 -1.7612385702738920e-02 0.0000000000000000e+00  -6.0617803115196678e-03 -2.9849898487727049e-02 0.0000000000000000e+00  -1.6200500559382784e-03 -8.2789143951097627e-03 0.0000000000000000e+00  -2.6324566705265149e-02 -1.1758101114328080e-01 0.0000000000000000e+00  -3.0472309096587769e-02 -1.1641797076530357e-01 0.0000000000000000e+00  1.7622704274862874e-04 -8.3894058665531530e-03 0.0000000000000000e+00  -4.0325413171516278e-04 -9.3033474798247197e-04 0.0000000000000000e+00  -3.0165000992120633e-02 -1.3109629114168042e-01 0.0000000000000000e+00  -1.1689461107699863e-02 -5.0924885878562642e-02 0.0000000000000000e+00  -1.0269958184883536e-02 -4.6313723680579351e-02 0.0000000000000000e+00  -1.9627192429163862e-04 -1.4962346443878890e-02 0.0000000000000000e+00  4.4946633096262513e-04 -1.9810005434612314e-03 0.0000000000000000e+00  5.1751070458787816e-04 -3.4732462151424244e-03 0.0000000000000000e+00  -2.0522726445701242e-03 -2.6707860376507502e-02 0.0000000000000000e+00  -4.6242523828561463e-04 -1.8033709339658980e-02 0.0000000000000000e+00  -2.5137660689216533e-03 -3.0510354619514669e-02 0.0000000000000000e+00  -2.5118717872300432e-04 -4.8326756936681542e-04 0.0000000000000000e+00  -3.1748732908045751e-02 -1.3469934178813425e-01 0.0000000000000000e+00  -2.5697280096786679e-02 -1.0017847892391789e-01 0.0000000000000000e+00  -2.3351580096732348e-02 -9.2266442395143866e-02 0.0000000000000000e+00  3.9781818756504540e-04 -6.3436950736208307e-03 0.0000000000000000e+00  -2.1061817135032551e-02 -8.4413242258115348e-02 0.0000000000000000e+00  -2.7652529581214041e-02 -1.2273416064318647e-01 0.0000000000000000e+00  -1.8827756861832565e-02 -7.6689936973954431e-02 0.0000000000000000e+00  -1.6673433230175828e-02 -6.9184113257109991e-02 0.0000000000000000e+00  -1.5805649408730685e-03 -2.3599461706621926e-02 0.0000000000000000e+00  -1.5591605070167608e-02 -6.5393459417502062e-02 0.0000000000000000e+00  -4.2048112998300429e-03 -3.7081704887944697e-02 0.0000000000000000e+00  -1.2665030009734245e-02 -5.4836855514597979e-02 0.0000000000000000e+00  -5.6123973722450376e-03 -4.3434811754452081e-02 0.0000000000000000e+00  -3.4817367485818145e-02 -1.2910305236415559e-01 0.0000000000000000e+00  -2.4627368071169654e-02 -1.1342232677584574e-01 0.0000000000000000e+00  -2.1161192577679841e-03 -1.0188048315773917e-02 0.0000000000000000e+00  3.6745514754018844e-04 -1.0270935390533811e-03 0.0000000000000000e+00  1.9633617473601637e-04 -3.8483814195323419e-04 0.0000000000000000e+00  -1.0095471321393068e-02 -6.2470134336705320e-02 0.0000000000000000e+00  -9.5702615516102454e-03 -4.2957868804774368e-02 0.0000000000000000e+00  -1.2011293157624845e-02 -6.9808505926281114e-02 0.0000000000000000e+00  -1.8459278575052876e-02 -9.3023699989274025e-02 0.0000000000000000e+00  -1.4095349528432961e-02 -7.7359987787913864e-02 0.0000000000000000e+00  -1.6233348416322190e-02 -8.5126014143843590e-02 0.0000000000000000e+00  -7.7347211635016349e-03 -3.6866130821853811e-02 0.0000000000000000e+00  -8.4001634752142555e-03 -5.5409784333770550e-02 0.0000000000000000e+00  -4.7735134572012864e-03 -2.3388562022464317e-02 0.0000000000000000e+00  -7.0753138803788702e-03 -3.2841401487511392e-02 0.0000000000000000e+00  -2.2256369946682952e-02 -1.0614284893251649e-01 0.0000000000000000e+00  -4.1418112429280705e-03 -2.0124789096921215e-02 0.0000000000000000e+00  -2.1112387899332979e-02 -1.0077372050813709e-01 0.0000000000000000e+00  -1.4322965986324964e-03 -6.3685897861017462e-03 0.0000000000000000e+00  -1.1569889422521087e-03 -4.5584703956654832e-03 0.0000000000000000e+00  -3.3710695802442903e-02 -1.2545849452030169e-01 0.0000000000000000e+00  -3.2236353998505669e-02 -1.2056822394767350e-01 0.0000000000000000e+00  -1.8241597825097093e-02 -9.0272804368290188e-02 0.0000000000000000e+00  -1.6034914864717351e-02 -8.2415282387821448e-02 0.0000000000000000e+00  -1.1748856241259212e-02 -6.7169409990880641e-02 0.0000000000000000e+00  -2.0380533258412204e-02 -9.8172830665155683e-02 0.0000000000000000e+00  -1.3915726314786438e-02 -7.4712658627266754e-02 0.0000000000000000e+00  -9.8249863934302024e-03 -5.9937314008178422e-02 0.0000000000000000e+00  -8.2140134929410882e-03 -3.8886359799252097e-02 0.0000000000000000e+00  2.4457474864883808e-04 -1.0223479298759460e-02 0.0000000000000000e+00  -2.9660150728670464e-02 -1.1242216322220992e-01 0.0000000000000000e+00  -2.8024123902438372e-02 -1.0744599606528084e-01 0.0000000000000000e+00  -2