<?xml version="1.0"?>
<VTKFile type="UnstructuredGrid"  version="0.1"  >
<UnstructuredGrid>
<Piece  NumberOfPoints="439" NumberOfCells="725">
<Points>
<DataArray  type="Float64"  NumberOfComponents="3"  format="ascii">0.5957457124065001 0.1460506736230906 0  0.5991436650632614 0.1658001157483502 0  0.2489897949 0.21 0  0.2489897949 0.19 0  0.5974447154039494 0.1559254095774584 0  0.2496355385699469 0.2060260530378829 0  0.249959460510575 0.2020130349814059 0  0.2499594605105767 0.1979869650186357 0  0.24963553856995 0.1939739469621422 0  0.2539967454558607 0.2099448394886508 0  0.2590091667707155 0.2098858099028667 0  0.2640207030707035 0.209811187778884 0  0.2690283180697458 0.2096874189919291 0  0.2740320294837076 0.2095375567693332 0  0.2790376159452427 0.2093504921748192 0  0.2840362900491555 0.2091445683811349 0  0.2890285615398581 0.2089048204158644 0  0.294020566619171 0.2086389596208034 0  0.2990080771781002 0.2083470368344323 0  0.3039973622600815 0.2080205995153322 0  0.3089857166457793 0.2076889774859431 0  0.3139647647168479 0.2073185202766488 0  0.3189508026803564 0.2069281379338689 0  0.3239250728940635 0.2065189130910686 0  0.3288998215767244 0.2060827427055971 0  0.3338707713946922 0.2056310646675774 0  0.3388381322219943 0.20515315655226 0  0.3438006537642267 0.2046645983562565 0  0.3487611297184277 0.2041538589743397 0  0.3537177538836145 0.2036278474737059 0  0.3586702607941487 0.2030867534035485 0  0.3636234447257566 0.2025212844820334 0  0.3685762238612605 0.2019523188727885 0  0.3735233030877135 0.2013611833039807 0  0.3784669351281728 0.2007608570570955 0  0.3834084896137804 0.2001440084420372 0  0.3883471186436059 0.1995152249142139 0  0.3932820989028934 0.1988749807658213 0  0.3982171918155191 0.1982162437289952 0  0.4031519190483244 0.1975557489448353 0  0.4080802565429117 0.1968785912022844 0  0.4130081253817077 0.1961883992799796 0  0.4179354095439966 0.1954951736650939 0  0.4228575172647732 0.1947869741562533 0  0.4277813609726277 0.1940715988037153 0  0.4327001032701764 0.1933470660620627 0  0.4376199867211673 0.1926125851099856 0  0.4425357032784665 0.191871967112977 0  0.4474494837074345 0.1911222915876803 0  0.4523627365407211 0.1903662269797011 0  0.4572747403465564 0.1896027033831263 0  0.4621836162176111 0.1888324273633411 0  0.4670920966006669 0.1880564886643913 0  0.471999213624948 0.1872739184907844 0  0.4769035434807938 0.1864855947189455 0  0.4818071113225998 0.1856924500903132 0  0.4867093844007013 0.1848936875273306 0  0.4916092603111661 0.1840904688133366 0  0.4965083280363616 0.1832832498648316 0  0.5014061790356551 0.182471484591366 0  0.5063019147919079 0.1816561109318718 0  0.511196838992186 0.1808375697844524 0  0.5160905891210916 0.1800154435087471 0  0.520982507379674 0.1791905885057941 0  0.5258737680111105 0.1783632454741431 0  0.5307639283228901 0.1775333034168295 0  0.5356527916752064 0.1767013338879784 0  0.540540505529151 0.1758678681874143 0  0.5454270311213172 0.1750325744220714 0  0.5503128245532297 0.1741956874144336 0  0.5551983315369977 0.1733585490263573 0  0.5600826908586474 0.1725199425193793 0  0.5649668130901305 0.1716807053200508 0  0.5698501649556375 0.1708411016356014 0  0.5747329813565034 0.1700009594628124 0  0.5796155765366816 0.1691608218492047 0  0.5844977824835437 0.1683205555071362 0  0.5893798050534257 0.167480263129745 0  0.5942617770656937 0.1666401628641712 0  0.5908638912356814 0.1468906818844054 0  0.5859821607356042 0.147730753690849 0  0.5811005372296799 0.1485709107655722 0  0.5762190812419153 0.1494109926210413 0  0.5713377523596143 0.1502508282800254 0  0.5664566034758733 0.1510904983351549 0  0.561575601286464 0.1519294887588392 0  0.5566949678264718 0.1527677460327002 0  0.5518142253226044 0.1536054012489863 0  0.5469336682234647 0.1544416105840145 0  0.5420532664823811 0.1552769780181344 0  0.5371725062409329 0.1561105457438381 0  0.5322919511382738 0.1569417898381049 0  0.5274118156212786 0.1577724354308416 0  0.5225309408322256 0.1586000877694155 0  0.5176503321423396 0.1594243040505778 0  0.5127701335881857 0.1602476344205715 0  0.5078887023808566 0.1610668439531868 0  0.5030076550764435 0.1618816901203733 0  0.4981270775340884 0.1626954135883794 0  0.4932449135840538 0.1635038172345855 0  0.4883632790789213 0.1643068044275608 0  0.4834821862002019 0.1651084213745577 0  0.4785991868907142 0.1659034569669332 0  0.4737169490892404 0.1666918404819558 0  0.4688351964479457 0.1674778836143697 0  0.4639521553270138 0.1682570721589492 0  0.4590696891164346 0.1690279169938632 0  0.4541872762315609 0.1697971360743877 0  0.4493021149490933 0.1705571048799805 0  0.4444190311265567 0.1713067533061359 0  0.4395366685418207 0.1720540757865944 0  0.4346526477266746 0.1727902191212334 0  0.4297676394048851 0.1735207722468117 0  0.4248826121517238 0.1742419867889968 0  0.4199963072225995 0.1749517347078658 0  0.4151122585072154 0.1756552390317636 0  0.4102262325327571 0.1763471129325911 0  0.4053415679822878 0.1770293035317185 0  0.4004573257251695 0.1777000270344181 0  0.3955718594067757 0.1783585761074553 0  0.3906835567468171 0.1790079096538304 0  0.3857943275143257 0.1796435508993896 0  0.3809104181427758 0.1802692037605483 0  0.3760209105867027 0.1808795381062572 0  0.3711360813576278 0.1814744449638703 0  0.3662462940532299 0.1820580520283629 0  0.3613578682749874 0.1826235281139793 0  0.3564664081118986 0.1831778396791942 0  0.3515739284478674 0.1837141817040393 0  0.3466885576559562 0.1842379913707539 0  0.3417962940558872 0.1847427078477555 0  0.3369112283749192 0.1852271669952579 0  0.3320178994879688 0.1856954680971968 0  0.3271274577650755 0.1861366121069472 0  0.3222394701081425 0.1865715250968159 0  0.3173481052398003 0.1869763351877037 0  0.3124670207016934 0.1873613152415037 0  0.307576836304285 0.1877252083064844 0  0.3026900220210861 0.1880586983481397 0  0.2978011253832129 0.1883747423443607 0  0.2929120945021809 0.1886606678971573 0  0.2880328683218182 0.188926195647222 0  0.2831436253446053 0.1891626452075476 0  0.2782662674805745 0.1893712769114186 0  0.2733814964606325 0.1895451196199426 0  0.2685070603532014 0.1896897832086579 0  0.263626791591961 0.1898116377518057 0  0.2587467526785145 0.1898974940808975 0  0.2538684165716713 0.1899423953927594 0  0.5965952462238642 0.1509880256330732 0  0.5982941608318942 0.1608627713247231 0  0.2589819444139819 0.2004948364049098 0  0.5412987619301324 0.1655742091158111 0  0.5660774383992626 0.1612935062405688 0  0.277475704582882 0.2002449348568566 0  0.5123333466177754 0.1703891014220267 0  0.526991467635063 0.1679127754891105 0  0.2944570830623642 0.1979224890904359 0  0.5803611279195613 0.1584009168510711 0  0.3103758966947668 0.1975569605208109 0  0.3369763029281778 0.1961392735468862 0  0.4976688663272705 0.1728377096919938 0  0.3551114016016254 0.1934239033486558 0  0.4829972053228403 0.1752509856370506 0  0.3704938819121674 0.1916757715341881 0  0.3895306744502719 0.1892770970295249 0  0.4678952746881719 0.1773224273933724 0  0.4532830089613069 0.1800899855797676 0  0.4039095985300143 0.1874543536146303 0  0.4189780016162089 0.1852375029082981 0  0.4379659292266204 0.1824247807487975 0  0.3201932806012989 0.1968278450276959 0  0.5563689781880937 0.1629831076528332 0  0.4274027466949768 0.1838587877391892 0  0.3466441033868446 0.1944842449385134 0  0.3810859561972575 0.1905122101346792 0  0.2860602166864022 0.199108975076819 0  0.5883802267803595 0.1557008632855429 0  0.2680289237101465 0.2014289098041311 0  0.4609781538281807 0.1811676158167462 0  0.4903524735555702 0.1764307453196292 0  0.5050263322603017 0.1739987723113129 0  0.3965988875871426 0.1860695629497625 0  0.475669959969224 0.1788233609717016 0  0.5196921200076199 0.1715352627033555 0  0.446276189988977 0.183454542988798 0  0.5343508523101324 0.1690475824110092 0  0.4113075223185194 0.1840490706017611 0  0.3622376914036304 0.190355408768797 0  0.3032009708422035 0.1958279138898708 0  0.5726536673742451 0.1579041366732844 0  0.5480379561068162 0.1615014292940286 0  0.3283697682480416 0.1989930213231164 0  0.5471542665370341 0.1684761870817507 0  0.3298075348620979 0.1921128365312969 0  0.5354856760772021 0.162627116130257 0  0.5208363960339933 0.1651157924462004 0  0.5061830162175555 0.1675808784958153 0  0.5758563944251067 0.1635805595514374 0  0.3014067511299081 0.2020842288875385 0  0.476861371330022 0.1724109584459877 0  0.4915248333108084 0.1700152124648779 0  0.395230079560352 0.1924409455741977 0  0.3607473879348739 0.1966970359588108 0  0.4578566630656405 0.175442930492513 0  0.4475181078921034 0.1770521914845676 0  0.409982017465795 0.190430830434362 0  0.255758345637307 0.1960606920024844 0  0.2550368392441403 0.2034229596967811 0  0.4346592198288067 0.1867576843755152 0  0.3739138479591039 0.1874373390210105 0  0.340122402372655 0.1910149441138218 0  0.2811310264042416 0.1953362275007221 0  0.2910542819047823 0.1948894407764535 0  0.4246242675110723 0.1884187192729268 0  0.3495988345310612 0.190038602179838 0  0.383945514272906 0.1860041736091969 0  0.3162859438303864 0.1932737788262866 0  0.5607141810102871 0.1660903191181217 0  0.5596914223608541 0.1584318378845269 0  0.3164915608492465 0.2009958412347576 0  0.2709658355170779 0.195628072231048 0  0.5857075122734172 0.1627469975212298 0  0.4332997515543232 0.1785409236120001 0  0.4231247915583468 0.1804593228131293 0  0.3406129293419263 0.1997642142639844 0  0.281058898906665 0.2040725086779034 0  0.2916492836350834 0.2035678646764122 0  0.37505071075716 0.195680329403179 0  0.3503151317955955 0.1991482917131438 0  0.3848548596012971 0.195101615167123 0  0.2647367151916293 0.1960294684868888 0  0.5925271954786464 0.160880662914419 0  0.5296527603128824 0.1631315553476732 0  0.5150025005749035 0.1656115343604243 0  0.3072607312245604 0.2021619060877638 0  0.5003481257356833 0.1680651492723288 0  0.5701976217638159 0.1650341103859214 0  0.4856889667108675 0.1704849911904265 0  0.4710672658546572 0.1728519548445461 0  0.3666104225628578 0.1965
[...]
<PointData  Vectors="d"> 
<DataArray  type="Float64"  Name="d"  NumberOfComponents="3" format="ascii">-4.2542875934997665e-03 -4.3949326376909410e-02 0.0000000000000000e+00  -8.5633493673861066e-04 -4.4199884251649876e-02 0.0000000000000000e+00  0.0000000000000000e+00 0.0000000000000000e+00 0.0000000000000000e+00  0.0000000000000000e+00 0.0000000000000000e+00 0.0000000000000000e+00  -2.5552845960506434e-03 -4.4074590422541672e-02 0.0000000000000000e+00  0.0000000000000000e+00 0.0000000000000000e+00 0.0000000000000000e+00  0.0000000000000000e+00 0.0000000000000000e+00 0.0000000000000000e+00  0.0000000000000000e+00 0.0000000000000000e+00 0.0000000000000000e+00  0.0000000000000000e+00 0.0000000000000000e+00 0.0000000000000000e+00  6.3144850231335034e-05 -5.5160511349215169e-05 0.0000000000000000e+00  1.3176045946130217e-04 -1.1419009713328238e-04 0.0000000000000000e+00  1.9949105381136028e-04 -1.8881222111599241e-04 0.0000000000000000e+00  2.6330034721576835e-04 -3.1258100807093626e-04 0.0000000000000000e+00  3.2320605555069852e-04 -4.6244323066677425e-04 0.0000000000000000e+00  3.8498681146739418e-04 -6.4950782518080803e-04 0.0000000000000000e+00  4.3985520976187384e-04 -8.5543161886508583e-04 0.0000000000000000e+00  4.8832099484144413e-04 -1.0951795841356066e-03 0.0000000000000000e+00  5.3652036851880138e-04 -1.3610403791965572e-03 0.0000000000000000e+00  5.8022522182944606e-04 -1.6529631655676745e-03 0.0000000000000000e+00  6.2570459818185272e-04 -1.9794004846678602e-03 0.0000000000000000e+00  6.7025327826117126e-04 -2.3110225140568221e-03 0.0000000000000000e+00  7.0549564371130582e-04 -2.6814797233511859e-03 0.0000000000000000e+00  7.4772790160145745e-04 -3.0718620661310614e-03 0.0000000000000000e+00  7.7819240969033670e-04 -3.4810869089313304e-03 0.0000000000000000e+00  8.0913538673267268e-04 -3.9172572944028575e-03 0.0000000000000000e+00  8.3627949907138306e-04 -4.3689353324226458e-03 0.0000000000000000e+00  8.5983462076580971e-04 -4.8468434477399970e-03 0.0000000000000000e+00  8.7855045736912377e-04 -5.3354016437434735e-03 0.0000000000000000e+00  8.9522070595161407e-04 -5.8461410256602283e-03 0.0000000000000000e+00  9.0803916552007879e-04 -6.3721525262941245e-03 0.0000000000000000e+00  9.1674037043589678e-04 -6.9132465964514790e-03 0.0000000000000000e+00  9.2611859642549891e-04 -7.4787155179665936e-03 0.0000000000000000e+00  9.3509202631105869e-04 -8.0476811272114420e-03 0.0000000000000000e+00  9.3836554713481329e-04 -8.6388166960192983e-03 0.0000000000000000e+00  9.3819188198510475e-04 -9.2391429429045154e-03 0.0000000000000000e+00  9.3594066196833108e-04 -9.8559915579628076e-03 0.0000000000000000e+00  9.3076398617220101e-04 -1.0484775085786062e-02 0.0000000000000000e+00  9.2193853983024861e-04 -1.1125019234178675e-02 0.0000000000000000e+00  9.1322574684860318e-04 -1.1783756271004866e-02 0.0000000000000000e+00  9.0414727402589475e-04 -1.2444251055164734e-02 0.0000000000000000e+00  8.8867906300095067e-04 -1.3121408797715619e-02 0.0000000000000000e+00  8.7274219617659865e-04 -1.3811600720020415e-02 0.0000000000000000e+00  8.5622065284476640e-04 -1.4504826334906084e-02 0.0000000000000000e+00  8.3452266800957526e-04 -1.5213025843746718e-02 0.0000000000000000e+00  8.1456067023579621e-04 -1.5928401196284629e-02 0.0000000000000000e+00  7.8949726215125796e-04 -1.6652933937937289e-02 0.0000000000000000e+00  7.6557500749004233e-04 -1.7387414890014413e-02 0.0000000000000000e+00  7.3748585913362315e-04 -1.8128032887022992e-02 0.0000000000000000e+00  7.0746058243770129e-04 -1.8877708412319696e-02 0.0000000000000000e+00  6.7690771007656257e-04 -1.9633773020298877e-02 0.0000000000000000e+00  6.4510581026994498e-04 -2.0397296616873676e-02 0.0000000000000000e+00  6.1017597569513874e-04 -2.1167572636658902e-02 0.0000000000000000e+00  5.7485065310036666e-04 -2.1943511335608717e-02 0.0000000000000000e+00  5.3816197174816696e-04 -2.2726081509215616e-02 0.0000000000000000e+00  4.9868612192710993e-04 -2.3514405281054425e-02 0.0000000000000000e+00  4.5844825808637684e-04 -2.4307549909686792e-02 0.0000000000000000e+00  4.1691563052527984e-04 -2.5106312472669364e-02 0.0000000000000000e+00  3.7298583535952460e-04 -2.5909531186663431e-02 0.0000000000000000e+00  3.2824785490066343e-04 -2.6716750135168412e-02 0.0000000000000000e+00  2.8229314856554894e-04 -2.7528515408633984e-02 0.0000000000000000e+00  2.3422319915865941e-04 -2.8343889068128202e-02 0.0000000000000000e+00  1.8534169379857447e-04 -2.9162430215547607e-02 0.0000000000000000e+00  1.3528611708790914e-04 -2.9984556491252892e-02 0.0000000000000000e+00  8.3398670032450059e-05 -3.0809411494205928e-02 0.0000000000000000e+00  3.0853595810342819e-05 -3.1636754525856854e-02 0.0000000000000000e+00  -2.2791798048854369e-05 -3.2466696583170467e-02 0.0000000000000000e+00  -7.7734151392157936e-05 -3.3298666112021584e-02 0.0000000000000000e+00  -1.3382600308558133e-04 -3.4132131812585696e-02 0.0000000000000000e+00  -1.9110611653578509e-04 -3.4967425577928583e-02 0.0000000000000000e+00  -2.4911839026120860e-04 -3.5804312585566433e-02 0.0000000000000000e+00  -3.0741711214803547e-04 -3.6641450973642721e-02 0.0000000000000000e+00  -3.6686349614122141e-04 -3.7480057480620700e-02 0.0000000000000000e+00  -4.2654697031754146e-04 -3.8319294679949219e-02 0.0000000000000000e+00  -4.8700081047406191e-04 -3.9158898364398592e-02 0.0000000000000000e+00  -5.4799011524251024e-04 -3.9999040537187586e-02 0.0000000000000000e+00  -6.0920064070173305e-04 -4.0839178150795290e-02 0.0000000000000000e+00  -6.7080039949041236e-04 -4.1679444492863774e-02 0.0000000000000000e+00  -7.3258353525507169e-04 -4.2519736870255030e-02 0.0000000000000000e+00  -7.9441722864681920e-04 -4.3359837135828840e-02 0.0000000000000000e+00  -4.1923030587017402e-03 -4.3109318115594583e-02 0.0000000000000000e+00  -4.1302278531538290e-03 -4.2269246309150965e-02 0.0000000000000000e+00  -4.0680456534394269e-03 -4.1429089234427847e-02 0.0000000000000000e+00  -4.0056959355574771e-03 -4.0589007378958680e-02 0.0000000000000000e+00  -3.9432191122370716e-03 -3.9749171719974580e-02 0.0000000000000000e+00  -3.8805622903576695e-03 -3.8909501664845150e-02 0.0000000000000000e+00  -3.8177587741540057e-03 -3.8070511241160829e-02 0.0000000000000000e+00  -3.7545865285170356e-03 -3.7232253967299844e-02 0.0000000000000000e+00  -3.6915233267536497e-03 -3.6394598751013724e-02 0.0000000000000000e+00  -3.6282747202389322e-03 -3.5558389415985464e-02 0.0000000000000000e+00  -3.5648707557232292e-03 -3.4723021981865505e-02 0.0000000000000000e+00  -3.5018252915721615e-03 -3.3889454256161980e-02 0.0000000000000000e+00  -3.4385746886223725e-03 -3.3058210161895078e-02 0.0000000000000000e+00  -3.3749044999845197e-03 -3.2227564569158401e-02 0.0000000000000000e+00  -3.3119735834371998e-03 -3.1399912230584436e-02 0.0000000000000000e+00  -3.2487765676849096e-03 -3.0575695949422169e-02 0.0000000000000000e+00  -3.1851694162361101e-03 -2.9752365579428466e-02 0.0000000000000000e+00  -3.1227949179659775e-03 -2.8933156046813222e-02 0.0000000000000000e+00  -3.0600365167741820e-03 -2.8118309879626723e-02 0.0000000000000000e+00  -2.9968083534921614e-03 -2.7304586411620594e-02 0.0000000000000000e+00  -2.9351665979182686e-03 -2.6496182765414520e-02 0.0000000000000000e+00  -2.8729953974318215e-03 -2.5693195572439171e-02 0.0000000000000000e+00  -2.8102825705323465e-03 -2.4891578625442293e-02 0.0000000000000000e+00  -2.7494761743903037e-03 -2.4096543033066829e-02 0.0000000000000000e+00  -2.6879082702561492e-03 -2.3308159518044168e-02 0.0000000000000000e+00  -2.6258552059225883e-03 -2.2522116385630359e-02 0.0000000000000000e+00  -2.5650906212416670e-03 -2.1742927841050839e-02 0.0000000000000000e+00  -2.5037511262003798e-03 -2.0972083006136802e-02 0.0000000000000000e+00  -2.4423583054495714e-03 -2.0202863925612286e-02 0.0000000000000000e+00  -2.3837138822875520e-03 -1.9442895120019447e-02 0.0000000000000000e+00  -2.3229919992149772e-03 -1.8693246693864116e-02 0.0000000000000000e+00  -2.2615488783258720e-03 -1.7945924213405583e-02 0.0000000000000000e+00  -2.2017639878550246e-03 -1.7209780878766595e-02 0.0000000000000000e+00  -2.1429666040280238e-03 -1.6479227753188289e-02 0.0000000000000000e+00  -2.0841881515628858e-03 -1.5758013211003171e-02 0.0000000000000000e+00  -2.0266873750486966e-03 -1.5048265292134246e-02 0.0000000000000000e+00  -1.9669303847901979e-03 -1.4344760968236395e-02 0.0000000000000000e+00  -1.9091506536022692e-03 -1.3652887067408919e-02 0.0000000000000000e+00  -1.8500094984116369e-03 -1.2970696468281499e-02 0.0000000000000000e+00  -1.7904460498782795e-03 -1.2299972965581898e-02 0.0000000000000000e+00  -1.7321066626143995e-03 -1.1641423892544708e-02 0.0000000000000000e+00  -1.6766036169376510e-03 -1.0992090346169592e-02 0.0000000000000000e+00  -1.6220271437825233e-03 -1.0356449100610418e-02 0.0000000000000000e+00  -1.5621308097065808e-03 -9.7307962394517639e-03 0.0000000000000000e+00  -1.5078326601231503e-03 -9.1204618937428417e-03 0.0000000000000000e+00  -1.4488561835494873e-03 -8.5255550361297196e-03 0.0000000000000000e+00  -1.3948377822785272e-03 -7.9419479716370586e-03 0.0000000000000000e+00  -1.3394578548739330e-03 -7.3764718860206959e-03 0.0000000000000000e+00  -1.2871123123121906e-03 -6.8221603208058609e-03 0.0000000000000000e+00  -1.2357862707216660e-03 -6.2858182959606929e-03 0.0000000000000000e+00  -1.1773513569748109e-03 -5.7620086292461169e-03 0.0000000000000000e+00  -1.1258092514048017e-03 -5.2572921522445054e-03 0.0000000000000000e+00  -1.0670692267342647e-03 -4.7728330047421118e-03 0.0000000000000000e+00  -1.0165924080462656e-03 -4.3045319028031884e-03 0.0000000000000000e+00  -9.6322842529961833e-04 -3.8633878930527847e-03 0.0000000000000000e+00  -9.0741037657458162e-04 -3.4284749031840982e-03 0.0000000000000000e+00  -8.5496953925882739e-04 -3.0236648122963102e-03 0.0000000000000000e+00  -7.9224837170790551e-04 -2.6386847584963691e-03 0.0000000000000000e+00  -7.3862706347307765e-04 -2.2747916935156195e-03 0.0000000000000000e+00  -6.8163564103357625e-04 -1.9413016518602471e-03 0.0000000000000000e+00  -6.2672657326840852e-04 -1.6252576556392547e-03 0.0000000000000000e+00  -5.7195174866206530e-04 -1.3393321028427041e-03 0.0000000000000000e+00  -5.0737222336914953e-04 -1.0738043527779876e-03 0.0000000000000000e+00  -4.5280949492425515e-04 -8.3735479245246964e-04 0.0000000000000000e+00  -3.8636165329716154e-04 -6.2872308858140998e-04 0.0000000000000000e+00  -3.2732696759175917e-04 -4.5488038005747460e-04 0.0000000000000000e+00  -2.5795736938448547e-04 -3.1021679134212121e-04 0.0000000000000000e+00  -1.9442042498657767e-04 -1.8836224819426340e-04 0.0000000000000000e+00  -1.3065363279470032e-04 -1.0250591910245706e-04 0.0000000000000000e+00  -6.5184033986634475e-05 -5.7604607240568023e-05 0.0000000000000000e+00  -3.4047537761358968e-03 -4.4011974366905085e-02 0.0000000000000000e+00  -1.7058391681058266e-03 -4.4137228675249766e-02 0.0000000000000000e+00  8.5178823326520299e-06 -5.7552937930569380e-05 0.0000000000000000e+00  -1.8474724551752002e-03 -3.4425790884157918e-02 0.0000000000000000e+00  -2.1623510775534540e-03 -3.8676952340329883e-02 0.0000000000000000e+00  2.4311871079587647e-05 -5.4925708533600252e-04 0.0000000000000000e+00  -1.5162367591214957e-03 -2.9513241227065168e-02 0.0000000000000000e+00  -1.6895328586751040e-03 -3.1989567159986299e-02 0.0000000000000000e+00  -5.3812143400374229e-05 -1.3687017501027498e-03 0.0000000000000000e+00  -2.4169552189313302e-03 -4.1142063249263824e-02 0.0000000000000000e+00  -3.6942962158758313e-05 -2.4134980600868648e-03 0.0000000000000000e+00  -2.3872613677255775e-05 -4.6901876965105517e-03 0.0000000000000000e+00  -1.3492999327754430e-03 -2.7064632957096428e-02 0.0000000000000000e+00  -1.7021596927894854e-04 -6.5760966514050237e-03 0.0000000000000000e+00  -1.1895438203523129e-03 -2.4651357012034292e-02 0.0000000000000000e+00  -2.4348947838774015e-04 -8.3384661611807988e-03 0.0000000000000000e+00  -3.5758305997755002e-04 -1.0722902970557873e-02 0.0000000000000000e+00  -1.0904803611015395e-03 -2.2219245032297039e-02 0.0000000000000000e+00  -8.7472272288976658e-04 -1.9910014420142182e-02 0.0000000000000000e+00  -4.4389287181871486e-04 -1.2643303736294137e-02 0.0000000000000000e+00  -5.7309012774809124e-04 -1.4762497091807644e-02 0.0000000000000000e+00  -7.3604863783091319e-04 -1.7560981555879710e-02 0.0000000000000000e+00  -5.3994424371431786e-05 -3.1810391869439782e-03 0.0000000000000000e+00  -2.0363759199912832e-03 -3.7008008132524542e-02 0.0000000000000000e+00  -6.6396799373653610e-04 -1.5990117081634864e-02 0.0000000000000000e+00  -1.2189123970281676e-04 -5.6668502409240968e-03 0.0000000000000000e+00  -2.8667836863332288e-04 -9.6388850447728276e-03 0.0000000000000000e+00  -8.1210058075929513e-06 -9.3256949379916156e-04 0.0000000000000000e+00  -2.7421543977600681e-03 -4.2544052649331469e-02 0.0000000000000000e+00  3.9607564283835440e-05 -2.4621584259791059e-04 0.0000000000000000e+00  -5.9528641444718793e-04 -2.1082747512054079e-02 0.0000000000000000e+00  -8.8380092077520360e-04 -2.5819618009179875e-02 0.0000000000000000e+00  -1.0413593328966891e-03 -2.8251591017498950e-02 0.0000000000000000e+00  -7.0507848153485576e-04 -1.1680073721433938e-02 0.0000000000000000e+00  -7.3489739026562481e-04 -2.3427002357103530e-02 0.0000000000000000e+00  -1.2069887024256504e-03 -3.0715100625462986e-02 0.0000000000000000e+00  -4.6583313678857713e-04 -1.8795820340002017e-02 0.0000000000000000e+00  -1.3796735167524372e-03 -3.3202780917810655e-02 0.0000000000000000e+00  -8.2786086701232015e-04 -1.3700566069436539e-02 0.0000000000000000e+00  -4.5963472570477150e-04 -7.3942279023948305e-03 0.0000000000000000e+00  -1.7068681969261118e-04 -1.9217227813161154e-03 0.0000000000000000e+00  -2.6273040975777892e-03 -3.9845499997865928e-02 0.0000000000000000e+00  -2.4218998122400043e-03 -3.5627049179738066e-02 0.0000000000000000e+00  1.7699503335746791e-04 -3.8785002031242184e-03 0.0000000000000000e+00  -1.2636355127120284e-03 -3.5364134487725560e-02 0.0000000000000000e+00  -4.2719222190090874e-04 -4.0468418992521630e-03 0.0000000000000000e+00  -2.4354091466093188e-03 -3.3498065534153978e-02 0.0000000000000000e+00  -2.2532720729718791e-03 -3.1009389218205386e-02 0.0000000000000000e+00  -2.0752347725667029e-03 -2.8544303168594458e-02 0.0000000000000000e+00  -1.6151364436026517e-03 -4.0294258784151334e-02 0.0000000000000000e+00  2.2565286495331585e-04 -1.7905894480552058e-03 0.0000000000000000e+00  -1.7340454263891220e-03 -2.3714223218416281e-02 0.0000000000000000e+00  -1.9020005624586565e-03 -2.6109969199528373e-02 0.0000000000000000e+00  1.1667288858894076e-04 -1.1433872761398851e-02 0.0000000000000000e+00  2.4062120246213926e-04 -7.1777823767843014e-03 0.0000000000000000e+00  -1.5262177800741442e-03 -2.0682251171886275e-02 0.0000000000000000e+00  -1.4144746305771324e-03 -1.9072990179833053e-02 0.0000000000000000e+00  3.7193677173102031e-05 -1.3443987901237024e-02 0.0000000000000000e+00  -2.7954342890175116e-05 -2.5145023245008786e-05 0.0000000000000000e+00  2.2103213200465550e-05 -1.9683302330324646e-05 0.0000000000000000e+00  -1.4392781766217993e-04 -1.7016073388640186e-02 0.0000000000000000e+00  -7.2235364930608222e-04 -8.7889032148447538e-03 0.0000000000000000e+00  -5.0343421377554325e-04 -5.0318480801671900e-03 0.0000000000000000e+00  -1.6914171474178641e-04 -7.1056469332805069e-04 0.0000000000000000e+00  -2.1435683920693075e-04 -1.1921920884747316e-03 0.0000000000000000e+00  -4.6266070916931507e-05 -1.5534488533027564e-02 0.0000000000000000e+00  -5.6334120185180933e-04 -6.0081900143498426e-03 0.0000000000000000e+00  -8.2330139936341812e-04 -1.0042618585039026e-02 0.0000000000000000e+00  -3.4642470796958445e-04 -2.8856797370834263e-03 0.0000000000000000e+00  -1.4408200950537880e-03 -3.7691330141777397e-02 0.0000000000000000e+00  -2.7499653411228895e-03 -3.7644354476610839e-02 0.0000000000000000e+00  2.5205726593363902e-04 -2.8721145077116048e-03 0.0000000000000000e+00  -1.2287790368427649e-04 -3.4157210153578190e-04 0.0000000000000000e+00  -1.5939253669431924e-03 -4.1975790581852475e-02 0.0000000000000000e+00  -1.3682050899477764e-03 -1.6924222343251284e-02 0.0000000000000000e+00  -1.2048588494518130e-03 -1.5416375280776938e-02 0.0000000000000000e+00  3.5697825857393276e-04 -5.0298357651078511e-03 0.0000000000000000e+00  1.9040623057166116e-04 -7.0173310336215918e-04 0.0000000000000000e+00  2.4158032121101403e-04 -1.2130870306832568e-03 0.0000000000000000e+00  2.7931814666686927e-04 -8.8545246416764506e-03 0.0000000000000000e+00  3.9348290570883509e-04 -6.0270496054867211e-03 0.0000000000000000e+00  3.2657077206729555e-04 -1.0073726151513009e-02 0.0000000000000000e+00  -7.7771353875936134e-05 -1.7950581174864955e-04 0.0000000000000000e+00  -1.7975688876430431e-03 -4.3160879444499173e-02 0.0000000000000000e+00  -2.4445007327321272e-03 -3.2512954557413931e-02 0.0000000000000000e+00  -2.2633433538692578e-03 -3.0032975544661080e-02 0.0000000000000000e+00  2.6840566429467709e-04 -2.1848972994912984e-03 0.0000000000000000e+00  -2.0863010762431260e-03 -2.7579360632757594e-02 0.0000000000000000e+00  -1.4626818096192392e-03 -3.9312693001354683e-02 0.0000000000000000e+00  -1.9140429842066011e-03 -2.5159518714656590e-02 0.0000000000000000e+00  -1.7479316749690981e-03 -2.2788292046443281e-02 0.0000000000000000e+00  2.8024491010404879e-04 -7.8489146834022552e-03 0.0000000000000000e+00  -1.6629777329666092e-03 -2.1580476838969742e-02 0.0000000000000000e+00  1.4924395709204534e-04 -1.2215024179030556e-02 0.0000000000000000e+00  -1.4305205022184012e-03 -1.8186314982477119e-02 0.0000000000000000e+00  6.8306628778348500e-05 -1.4263261854946018e-02 0.0000000000000000e+00  -3.1178679390181491e-03 -4.1727493322561433e-02 0.0000000000000000e+00  -1.2328563562133707e-03 -3.6343550551522032e-02 0.0000000000000000e+00  -4.4424098305292540e-04 -3.5361005932353783e-03 0.0000000000000000e+00  1.4688877219379626e-04 -3.7014573464934082e-04 0.0000000000000000e+00  7.7788388523593826e-05 -1.4333869769813745e-04 0.0000000000000000e+00  -1.8190842072849829e-04 -2.0363725650240676e-02 0.0000000000000000e+00  -1.1840306512933608e-03 -1.4335268454057465e-02 0.0000000000000000e+00  -3.0897999886282445e-04 -2.2691479085686965e-02 0.0000000000000000e+00  -7.6991866077403377e-04 -2.9943127957274881e-02 0.0000000000000000e+00  -4.6276423960775730e-04 -2.5067111553943183e-02 0.0000000000000000e+00  -6.1158499253584732e-04 -2.7488153816995303e-02 0.0000000000000000e+00  -9.6222145329791404e-04 -1.2335851606416776e-02 0.0000000000000000e+00  -9.1676237374446767e-05 -1.8110988522196867e-02 0.0000000000000000e+00  -7.4331519009380195e-04 -7.9253751355471865e-03 0.0000000000000000e+00  -9.7929265060103018e-04 -1.1037662253185899e-02 0.0000000000000000e+00  -1.0322548927088704e-03 -3.4037647944418561e-02 0.0000000000000000e+00  -6.9426040565776284e-04 -6.8494772757778525e-03 0.0000000000000000e+00  -1.0517478872154832e-03 -3.2385045674010099e-02 0.0000000000000000e+00  -3.4272107009843838e-04 -2.2380889324048925e-03 0.0000000000000000e+00  -3.0058289396340843e-04 -1.6159388902010109e-03 0.0000000000000000e+00  -3.0570268182297158e-03 -4.0564147261287715e-02 0.0000000000000000e+00  -2.9750704034751238e-03 -3.9003835655585788e-02 0.0000000000000000e+00  -8.8085056315179708e-04 -2.9123528820789852e-02 0.0000000000000000e+00  -7.2327068323121404e-04 -2.6679109095080363e-02 0.0000000000000000e+00  -3.9389865446913557e-04 -2.1883228905929090e-02 0.0000000000000000e+00  -1.0056516313893162e-03 -3.1574625219398640e-02 0.0000000000000000e+00  -5.7490991201768053e-04 -2.4271251969026429e-02 0.0000000000000000e+00  -2.5432540419585643e-04 -1.9577786121983718e-02 0.0000000000000000e+00  -9.9733563323271693e-04 -1.2992890025759773e-02 0.0000000000000000e+00  3.3230885208335842e-04 -3.4742523379447743e-03 0.0000000000000000e+00  -2.7899400720737275e-03 -3.6401839106682994e-02 0.0000000000000000e+00  -2.6478563940658785e-03 -3.4814760029475464e-02 0.0000000000000000e+00  3.3360738660691085e-04 -4.3216496856696490e-0