<?xml version="1.0"?>
<VTKFile type="UnstructuredGrid"  version="0.1"  >
<UnstructuredGrid>
<Piece  NumberOfPoints="439" NumberOfCells="725">
<Points>
<DataArray  type="Float64"  NumberOfComponents="3"  format="ascii">0.5997874073768339 0.1872835197758644 0  0.5997627834274776 0.2071439547161746 0  0.2489897949 0.21 0  0.2489897949 0.19 0  0.5997739415960479 0.1972138681869195 0  0.2496355385699469 0.2060260530378829 0  0.249959460510575 0.2020130349814059 0  0.2499594605105767 0.1979869650186357 0  0.24963553856995 0.1939739469621422 0  0.2539488374710262 0.2099844863796152 0  0.2589069275751038 0.209967113123587 0  0.2638635984072642 0.2099458040653769 0  0.2688178361419646 0.2099150792990985 0  0.2737697019715523 0.2098805889148884 0  0.2787201494590014 0.2098407088326723 0  0.2836685927313897 0.2097992566533784 0  0.2886148416324961 0.2097548780877166 0  0.2935597632999515 0.2097092255560798 0  0.2985033302266604 0.2096631364759953 0  0.3034451417966256 0.2096175632292253 0  0.3083862362161683 0.2095720169983625 0  0.3133255107142648 0.2095282093382503 0  0.3182637391108955 0.2094854761106243 0  0.3232016093068344 0.2094448398387335 0  0.3281386770320701 0.2094072327073376 0  0.3330752721555145 0.2093716788772885 0  0.3380112724742915 0.2093401900260533 0  0.3429478328345584 0.2093103340823443 0  0.3478835877878628 0.2092839992472206 0  0.3528196116772501 0.2092604651701651 0  0.3577564662108523 0.2092400632537163 0  0.3626944959408004 0.2092238462863109 0  0.3676333725548425 0.2092092645971832 0  0.3725754489468776 0.2092003294782223 0  0.3775196130381928 0.2091929955984316 0  0.3824663434331648 0.2091888221719202 0  0.3874147890205644 0.2091863696305299 0  0.3923647053942865 0.209184099044207 0  0.3973143841018718 0.2091809507256994 0  0.4022657426840091 0.2091768328157945 0  0.4072156541734041 0.2091710673284694 0  0.4121664032753999 0.2091612342704018 0  0.4171184740971725 0.2091508904443519 0  0.4220701279249335 0.2091354649110349 0  0.4270256990682066 0.2091185422792917 0  0.4319812398834787 0.2090945356066289 0  0.4369421453744592 0.2090654032897298 0  0.4419023591911411 0.2090283913633741 0  0.4468636593661479 0.2089811151945604 0  0.451827293333286 0.2089244976507703 0  0.4567917168674315 0.2088571589516894 0  0.4617534906811334 0.2087755375419696 0  0.4667150386194424 0.2086834117781568 0  0.471673281351796 0.2085802510374037 0  0.4766285744013756 0.2084644893510867 0  0.4815795760372565 0.2083429659648049 0  0.4865245465114245 0.2082165586758879 0  0.4914687387731655 0.2080879071410088 0  0.4964081981360515 0.2079619410200766 0  0.5013425295849609 0.207840756750284 0  0.5062791571959521 0.2077282578397453 0  0.5112135105105833 0.2076255101891916 0  0.5161461686289179 0.2075339399371768 0  0.5210821943280882 0.2074552978867821 0  0.5260169654044493 0.2073876972727905 0  0.5309509703945628 0.2073318420661484 0  0.5358849586179193 0.2072867041358055 0  0.5408171282355891 0.2072507171474423 0  0.5457465627088908 0.2072228840469919 0  0.5506732844849147 0.2072012749908917 0  0.5555967696444534 0.207184571075707 0  0.5605116475163044 0.2071712463725111 0  0.5654233334468541 0.2071626786409463 0  0.5703307378477611 0.2071575867815528 0  0.5752357427587851 0.207151866805624 0  0.5801395006198437 0.2071500869491499 0  0.5850422987476794 0.2071465860684895 0  0.5899469025487023 0.2071446219469721 0  0.5948537563245956 0.2071433194855824 0  0.5948822740463331 0.1872745740274574 0  0.5899829392257477 0.187265145285833 0  0.5850859808791292 0.1872564904308305 0  0.5801880633635048 0.187242290874919 0  0.5752878292993669 0.1872250922636313 0  0.5703799664216164 0.1872070754114556 0  0.5654619901941508 0.1871877369737868 0  0.5605346932328082 0.1871683534037061 0  0.5555942859881107 0.1871559388299934 0  0.5506426479280062 0.1871499647220425 0  0.545680217486503 0.1871541027314227 0  0.540709289380173 0.1871696025257941 0  0.5357330066034329 0.1872008248236855 0  0.5307507214827089 0.1872427384610471 0  0.5257665306819295 0.1873011030907242 0  0.5207825243714683 0.1873786354182845 0  0.5157978009901804 0.187465374151678 0  0.5108207519599531 0.1875677373928789 0  0.5058481877685276 0.1876848486356374 0  0.5008789218835737 0.187805729594767 0  0.4959220230386914 0.187934990926733 0  0.4909708194124137 0.1880689533961275 0  0.4860238892307723 0.1881999313667671 0  0.481087303932111 0.1883291660208219 0  0.4761549058379835 0.1884524496239029 0  0.4712247041347832 0.1885680490193395 0  0.4662999073757632 0.1886748483370346 0  0.4613761819027828 0.1887680909111348 0  0.4564521918182911 0.1888556548651921 0  0.4515264741335845 0.1889291074594544 0  0.4466036984083215 0.1889893867863634 0  0.441679102646323 0.1890455607199681 0  0.4367533093635675 0.1890879400752755 0  0.431824978164166 0.1891247388121313 0  0.426896501850994 0.1891525822614562 0  0.4219656673672787 0.1891716536554642 0  0.4170347202366148 0.1891864292666197 0  0.4121001756669073 0.1891949723585295 0  0.4071630968624961 0.1891993358708163 0  0.4022227892223687 0.1892001803275271 0  0.3972784865387433 0.1891995101081621 0  0.3923307988154783 0.189198957339725 0  0.3873806395432701 0.1891998974170747 0  0.3824297315611282 0.1892020179675961 0  0.3774780747094986 0.1892082952142469 0  0.3725269037722228 0.1892166478632399 0  0.3675776197042936 0.1892279869637512 0  0.3626299248160443 0.1892418211658226 0  0.3576835691408165 0.1892570610967203 0  0.3527377998109382 0.1892745540157197 0  0.3477909225332634 0.1892936422147251 0  0.3428443104307747 0.1893157838945078 0  0.3378964107426629 0.1893416324984397 0  0.3329493572857153 0.1893715130140586 0  0.3280027858291293 0.1894057625928544 0  0.3230564352426363 0.1894411747904017 0  0.3181113892024378 0.1894804459102616 0  0.3131660783121644 0.1895211261520757 0  0.3082216196397606 0.1895636087019051 0  0.3032773236055374 0.1896080972170302 0  0.2983336769531471 0.1896536370153046 0  0.2933912205940765 0.1897001907731876 0  0.2884503000469382 0.1897466232036297 0  0.2835108724800696 0.1897915755044188 0  0.2785738102147788 0.1898348797945208 0  0.2736378577634589 0.1898737493022929 0  0.2687050900075896 0.1899089945674324 0  0.2637733642155178 0.189940507412536 0  0.2588435725402162 0.1899650340436999 0  0.2539158016817999 0.189981097826742 0  0.5997795217043899 0.1922481834848845 0  0.5997674136223782 0.2021788462477972 0  0.2589733244468693 0.2005294213165475 0  0.5432347017326827 0.197218280833864 0  0.5682668805098741 0.1971731693178913 0  0.2774510601072683 0.2006469679686763 0  0.5138543486899321 0.1974385305523539 0  0.5287331211713336 0.1972203058976491 0  0.2944961287366868 0.1989864465509693 0  0.5826922950980102 0.1967543780406051 0  0.3104005054486131 0.1995181787947273 0  0.3369812202416026 0.2001719958544031 0  0.4989953149285661 0.1977696208168866 0  0.3552486629818936 0.1992544147269549 0  0.4841620486082099 0.1981582379616066 0  0.3707015573579631 0.199222569401536 0  0.3898752775341655 0.1991906607681875 0  0.4689629823314326 0.1981674684024718 0  0.4541498340422281 0.1988949731683616 0  0.4043558090511738 0.1992863524915086 0  0.419551322830355 0.1991662785000936 0  0.4386949187359586 0.1990543629620987 0  0.3202303143208622 0.1994723749257633 0  0.5584801039220301 0.1971882029109887 0  0.4280624314350728 0.1989835844981911 0  0.346738925768156 0.1994411910758295 0  0.3813476530735233 0.1993448315371622 0  0.2860611706892828 0.1998166849959227 0  0.5909660865292211 0.1954654805960847 0  0.2679933828938368 0.2016001372939026 0  0.4616055689574983 0.2010258935394623 0  0.4912667663833658 0.2003239052733787 0  0.5061047160061707 0.199954765421972 0  0.3972958434891669 0.1969417889945737 0  0.4764387548941436 0.200708010104401 0  0.5209616446272624 0.1996760929471152 0  0.4467641180025864 0.2012396718983583 0  0.5358230292828474 0.1995161916822625 0  0.412130348811817 0.1969342341367683 0  0.3626538534282883 0.1969814242362469 0  0.3033428382051308 0.1973603061334744 0  0.5752631549206239 0.1949637740548531 0  0.5505438475011767 0.1943195974073105 0  0.3281915602161293 0.2022739800104583 0  0.5485214451973323 0.2010515171658531 0  0.3301875787320732 0.1955472377942627 0  0.537971963480582 0.1933504524936984 0  0.5230695494169395 0.1934960075792314 0  0.508172564350059 0.1937669575735088 0  0.5774214807978978 0.2010652615264544 0  0.3012035483833529 0.2035087184064242 0  0.4784868927995791 0.1945226733361067 0  0.4933114679539189 0.1941335181231849 0  0.3951144202095258 0.2030622777543989 0  0.3604845370222121 0.2031076705656312 0  0.4593035865021 0.1949350925955646 0  0.448872248577255 0.1950906580625013 0  0.4099595569537257 0.203052880181421 0  0.2557786361079256 0.1960734184975116 0  0.2550190430144058 0.2034333289393201 0  0.4348298493989093 0.2028647519729782 0  0.3745939906693679 0.1954315051375476 0  0.340579066605682 0.1953695049043371 0  0.2812644872620513 0.1958638796605693 0  0.2912282468654802 0.1958064190475382 0  0.4246913491974623 0.2030940127592087 0  0.3501148383656897 0.1953240425320921 0  0.3847402930116151 0.1952414651728284 0  0.3165877260036269 0.1956523558501509 0  0.5622125219374215 0.2009739690531216 0  0.562505787307306 0.1932718020295562 0  0.3162547498053302 0.2033665713091415 0  0.2710595183004739 0.1958695761513487 0  0.5871656884876774 0.2019040795796193 0  0.434621008346855 0.1945674623917192 0  0.4243029033710719 0.1950329877913231 0  0.3402572104241953 0.2041179745476332 0  0.2808976377630962 0.2045978951263158 0  0.2914388011146613 0.2045078887610596 0  0.3747498982271037 0.2037328746703523 0  0.3499147128936501 0.2044496644191077 0  0.3845174927779896 0.2043645826493387 0  0.2647940893795095 0.1961508924293729 0  0.5941339067874564 0.2012252896184498 0  0.5321199444629691 0.1929098469267753 0  0.5172111420955521 0.1931050347133337 0  0.3070168221798332 0.2039274774858975 0  0.502322908991755 0.1934206371304462 0  0.5716555260029159 0.2015359984221367 0  0.4874755949970092 0.193806359912423 0  0.4727036452855864 0.1941763159935616 0  0.3663071213485082 0.2035
[...]
<PointData  Vectors="d"> 
<DataArray  type="Float64"  Name="d"  NumberOfComponents="3" format="ascii">-2.1259262316589107e-04 -2.7164802241355897e-03 0.0000000000000000e+00  -2.3721657252237017e-04 -2.8560452838254026e-03 0.0000000000000000e+00  0.0000000000000000e+00 0.0000000000000000e+00 0.0000000000000000e+00  0.0000000000000000e+00 0.0000000000000000e+00 0.0000000000000000e+00  -2.2605840395208718e-04 -2.7861318130806235e-03 0.0000000000000000e+00  0.0000000000000000e+00 0.0000000000000000e+00 0.0000000000000000e+00  0.0000000000000000e+00 0.0000000000000000e+00 0.0000000000000000e+00  0.0000000000000000e+00 0.0000000000000000e+00 0.0000000000000000e+00  0.0000000000000000e+00 0.0000000000000000e+00 0.0000000000000000e+00  1.5236865397076581e-05 -1.5513620384744623e-05 0.0000000000000000e+00  2.9521263849538152e-05 -3.2886876413032123e-05 0.0000000000000000e+00  4.2386390372136658e-05 -5.4195934622983863e-05 0.0000000000000000e+00  5.2818419434724354e-05 -8.4920700901445573e-05 0.0000000000000000e+00  6.0878543395277663e-05 -1.1941108511168598e-04 0.0000000000000000e+00  6.7520325226039707e-05 -1.5929116732765080e-04 0.0000000000000000e+00  7.2157891995966491e-05 -2.0074334662154342e-04 0.0000000000000000e+00  7.4601087479516848e-05 -2.4512191228345082e-04 0.0000000000000000e+00  7.5717049299313892e-05 -2.9077444392017730e-04 0.0000000000000000e+00  7.5478270389596074e-05 -3.3686352400477058e-04 0.0000000000000000e+00  7.3484134725864948e-05 -3.8243677077475868e-04 0.0000000000000000e+00  7.0772848650356931e-05 -4.2798300163742630e-04 0.0000000000000000e+00  6.6241641128257382e-05 -4.7179066174974163e-04 0.0000000000000000e+00  6.0664332140557456e-05 -5.1452388937566005e-04 0.0000000000000000e+00  5.4728822461180861e-05 -5.5516016126639517e-04 0.0000000000000000e+00  4.7990842078468065e-05 -5.9276729266239769e-04 0.0000000000000000e+00  4.0780259893704328e-05 -6.2832112271144999e-04 0.0000000000000000e+00  3.2974873062963348e-05 -6.5980997394666336e-04 0.0000000000000000e+00  2.5729527700766626e-05 -6.8966591765562977e-04 0.0000000000000000e+00  1.7678775386809883e-05 -7.1600075277934109e-04 0.0000000000000000e+00  9.8969591556493579e-06 -7.3953482983491836e-04 0.0000000000000000e+00  2.9457871397849381e-06 -7.5993674628369934e-04 0.0000000000000000e+00  -2.8301885305684393e-06 -7.7615371368899020e-04 0.0000000000000000e+00  -7.7592801070859801e-06 -7.9073540281674392e-04 0.0000000000000000e+00  -9.4885937011201957e-06 -7.9967052177768502e-04 0.0000000000000000e+00  -9.1302079948904987e-06 -8.0700440156841215e-04 0.0000000000000000e+00  -6.2055186474008530e-06 -8.1117782807987925e-04 0.0000000000000000e+00  -1.5656368694580692e-06 -8.1363036947002443e-04 0.0000000000000000e+00  4.5450312233712325e-06 -8.1590095579310768e-04 0.0000000000000000e+00  1.0418033201280940e-05 -8.1904927430057214e-04 0.0000000000000000e+00  1.7970909710664704e-05 -8.2316718420561092e-04 0.0000000000000000e+00  2.4076693493179106e-05 -8.2893267153057442e-04 0.0000000000000000e+00  3.1020089868907364e-05 -8.3876572959819316e-04 0.0000000000000000e+00  3.9285206020795029e-05 -8.4910955564808637e-04 0.0000000000000000e+00  4.7133328169973785e-05 -8.6453508896512546e-04 0.0000000000000000e+00  5.8898765814733748e-05 -8.8145772070825023e-04 0.0000000000000000e+00  7.0633875453723200e-05 -9.0546439337108281e-04 0.0000000000000000e+00  8.7733660781886749e-05 -9.3459671027019400e-04 0.0000000000000000e+00  1.0414177180826901e-04 -9.7160863662578247e-04 0.0000000000000000e+00  1.2163624115106843e-04 -1.0188848054394019e-03 0.0000000000000000e+00  1.4146450264144499e-04 -1.0755023492296874e-03 0.0000000000000000e+00  1.6208233114501091e-04 -1.1428410483107336e-03 0.0000000000000000e+00  1.8005043921732509e-04 -1.2244624580303456e-03 0.0000000000000000e+00  1.9779267187572063e-04 -1.3165882218432409e-03 0.0000000000000000e+00  2.1222969859615155e-04 -1.4197489625962568e-03 0.0000000000000000e+00  2.2371704250878627e-04 -1.5355106489132078e-03 0.0000000000000000e+00  2.3091297274314686e-04 -1.6570340351950339e-03 0.0000000000000000e+00  2.3207774124825049e-04 -1.7834413241120737e-03 0.0000000000000000e+00  2.3246429735908103e-04 -1.9120928589912228e-03 0.0000000000000000e+00  2.2811795459049959e-04 -2.0380589799232933e-03 0.0000000000000000e+00  2.1864369787156796e-04 -2.1592432497159215e-03 0.0000000000000000e+00  2.1146560320296450e-04 -2.2717421602546691e-03 0.0000000000000000e+00  2.0201321219567671e-04 -2.3744898108084087e-03 0.0000000000000000e+00  1.9086562491377984e-04 -2.4660600628232357e-03 0.0000000000000000e+00  1.8308561844671082e-04 -2.5447021132179708e-03 0.0000000000000000e+00  1.7405098914872037e-04 -2.6123027272093834e-03 0.0000000000000000e+00  1.6425027362351117e-04 -2.6681579338516098e-03 0.0000000000000000e+00  1.5443279132071894e-04 -2.7132958641945372e-03 0.0000000000000000e+00  1.4279670335238484e-04 -2.7492828525576564e-03 0.0000000000000000e+00  1.2842547103763936e-04 -2.7771159530080658e-03 0.0000000000000000e+00  1.1134154142391631e-04 -2.7987250091083419e-03 0.0000000000000000e+00  9.1020995307630645e-05 -2.8154289242928628e-03 0.0000000000000000e+00  6.2093161515858186e-05 -2.8287536274890159e-03 0.0000000000000000e+00  2.9973386405679906e-05 -2.8373213590536187e-03 0.0000000000000000e+00  -6.4279183503118358e-06 -2.8424132184471929e-03 0.0000000000000000e+00  -4.5228712960860727e-05 -2.8481331943760262e-03 0.0000000000000000e+00  -8.5276557539944241e-05 -2.8499130508500906e-03 0.0000000000000000e+00  -1.2628413535464795e-04 -2.8534139315106255e-03 0.0000000000000000e+00  -1.6548603997833467e-04 -2.8553780530279444e-03 0.0000000000000000e+00  -2.0243796974509830e-04 -2.8566805144176859e-03 0.0000000000000000e+00  -1.7392024805025391e-04 -2.7254259725425535e-03 0.0000000000000000e+00  -1.2944936301023991e-04 -2.7348547141669579e-03 0.0000000000000000e+00  -8.2602003990131731e-05 -2.7435095691695070e-03 0.0000000000000000e+00  -3.6713813967920605e-05 -2.7577091250809457e-03 0.0000000000000000e+00  6.8578275153927173e-06 -2.7749077363687521e-03 0.0000000000000000e+00  4.2800655384910157e-05 -2.7929245885443994e-03 0.0000000000000000e+00  6.8630133532420851e-05 -2.8122630262132288e-03 0.0000000000000000e+00  8.5138877819536675e-05 -2.8316465962938868e-03 0.0000000000000000e+00  8.8537338752812689e-05 -2.8440611700065888e-03 0.0000000000000000e+00  8.0704984302627203e-05 -2.8500352779574738e-03 0.0000000000000000e+00  6.2080248398614884e-05 -2.8458972685772481e-03 0.0000000000000000e+00  3.4957847668325978e-05 -2.8303974742058852e-03 0.0000000000000000e+00  2.4807765368551243e-06 -2.7991751763145789e-03 0.0000000000000000e+00  -3.5998638554020814e-05 -2.7572615389528554e-03 0.0000000000000000e+00  -7.6383733733159588e-05 -2.6988969092757607e-03 0.0000000000000000e+00  -1.1658433855611955e-04 -2.6213645817154416e-03 0.0000000000000000e+00  -1.5750201424155112e-04 -2.5346258483220801e-03 0.0000000000000000e+00  -1.9074533886939094e-04 -2.4322626071209860e-03 0.0000000000000000e+00  -2.1950382468976146e-04 -2.3151513643625845e-03 0.0000000000000000e+00  -2.4496400400675469e-04 -2.1942704052329435e-03 0.0000000000000000e+00  -2.5805714328064696e-04 -2.0650090732669503e-03 0.0000000000000000e+00  -2.6545506393933392e-04 -1.9310466038724966e-03 0.0000000000000000e+00  -2.6857953996199348e-04 -1.8000686332327760e-03 0.0000000000000000e+00  -2.6135913299356111e-04 -1.6708339791781032e-03 0.0000000000000000e+00  -2.4995152151305219e-04 -1.5475503760970161e-03 0.0000000000000000e+00  -2.3634751908522454e-04 -1.4319509806605209e-03 0.0000000000000000e+00  -2.1733857249227399e-04 -1.3251516629653784e-03 0.0000000000000000e+00  -1.9725833985217691e-04 -1.2319090888650880e-03 0.0000000000000000e+00  -1.7744271871913942e-04 -1.1443451348078677e-03 0.0000000000000000e+00  -1.5935469779635323e-04 -1.0708925405454985e-03 0.0000000000000000e+00  -1.3832471745019333e-04 -1.0106132136365935e-03 0.0000000000000000e+00  -1.1911477382355374e-04 -9.5443928003194768e-04 0.0000000000000000e+00  -1.0110235096221072e-04 -9.1205992472454087e-04 0.0000000000000000e+00  -8.5627844747038581e-05 -8.7526118786869121e-04 0.0000000000000000e+00  -7.0298452292466321e-05 -8.4741773854375181e-04 0.0000000000000000e+00  -5.7327230369552897e-05 -8.2834634453580016e-04 0.0000000000000000e+00  -4.4468655390961074e-05 -8.1357073338028120e-04 0.0000000000000000e+00  -3.5207519452051364e-05 -8.0502764147061213e-04 0.0000000000000000e+00  -2.8480618203530876e-05 -8.0066412918372153e-04 0.0000000000000000e+00  -2.4982552679016148e-05 -7.9981967247296491e-04 0.0000000000000000e+00  -2.5479530646934300e-05 -8.0048989183792235e-04 0.0000000000000000e+00  -2.9361548276406774e-05 -8.0104266027495870e-04 0.0000000000000000e+00  -3.5715114838112983e-05 -8.0010258292537357e-04 0.0000000000000000e+00  -4.2817391353926378e-05 -7.9798203240383290e-04 0.0000000000000000e+00  -5.0668537327323427e-05 -7.9170478575308777e-04 0.0000000000000000e+00  -5.8033768954458564e-05 -7.8335213676011188e-04 0.0000000000000000e+00  -6.3512131214879346e-05 -7.7201303624872982e-04 0.0000000000000000e+00  -6.7401313817175805e-05 -7.5817883417741972e-04 0.0000000000000000e+00  -6.9951283394323899e-05 -7.4293890327965231e-04 0.0000000000000000e+00  -7.1914907650820717e-05 -7.2544598428034160e-04 0.0000000000000000e+00  -7.4986479667539795e-05 -7.0635778527491553e-04 0.0000000000000000e+00  -7.7792876517106810e-05 -6.8421610549221801e-04 0.0000000000000000e+00  -8.1886858990748982e-05 -6.5836750156036841e-04 0.0000000000000000e+00  -8.5134610299845656e-05 -6.2848698594130737e-04 0.0000000000000000e+00  -8.7900361245476765e-05 -5.9423740714566187e-04 0.0000000000000000e+00  -9.0445242080922927e-05 -5.5882520959829921e-04 0.0000000000000000e+00  -9.1685576621134400e-05 -5.1955408973829577e-04 0.0000000000000000e+00  -9.3190761236762760e-05 -4.7887384792443563e-04 0.0000000000000000e+00  -9.3843727997544113e-05 -4.3639129809486488e-04 0.0000000000000000e+00  -9.4334056582206241e-05 -3.9190278296980392e-04 0.0000000000000000e+00  -9.4175003334189206e-05 -3.4636298469547204e-04 0.0000000000000000e+00  -9.2825656766513102e-05 -2.9980922681235731e-04 0.0000000000000000e+00  -8.9940498249290658e-05 -2.5337679637029776e-04 0.0000000000000000e+00  -8.5562359460067294e-05 -2.0842449558118410e-04 0.0000000000000000e+00  -7.8818919092819785e-05 -1.6512020547933045e-04 0.0000000000000000e+00  -7.0965664765530582e-05 -1.2625069770706886e-04 0.0000000000000000e+00  -5.9927714996442462e-05 -9.1005432567704746e-05 0.0000000000000000e+00  -4.7847801429906831e-05 -5.9492587463967757e-05 0.0000000000000000e+00  -3.3833771092976288e-05 -3.4965956300108025e-05 0.0000000000000000e+00  -1.7798923858113442e-05 -1.8902173258024402e-05 0.0000000000000000e+00  -2.2047829561011172e-04 -2.7518165150937461e-03 0.0000000000000000e+00  -2.3258637762206650e-04 -2.8211537521756515e-03 0.0000000000000000e+00  -1.0208477999108465e-07 -2.2968026292830104e-05 0.0000000000000000e+00  8.8467347375426159e-05 -2.7817191661050080e-03 0.0000000000000000e+00  2.7091033058075519e-05 -2.7972892630073664e-03 0.0000000000000000e+00  -3.3260453410532927e-07 -1.4722397351638324e-04 0.0000000000000000e+00  4.7653130351346612e-06 -2.4638120967379077e-03 0.0000000000000000e+00  5.2120677595719574e-05 -2.6820367514477170e-03 0.0000000000000000e+00  -1.4766469077888325e-05 -3.0474428956933462e-04 0.0000000000000000e+00  -8.5788040482250526e-05 -2.7886020597298940e-03 0.0000000000000000e+00  -1.2334208312511484e-05 -4.5227978617045126e-04 0.0000000000000000e+00  -1.8955300252464111e-05 -6.5746538899364890e-04 0.0000000000000000e+00  -2.2851331479899551e-05 -2.1327218322036712e-03 0.0000000000000000e+00  -3.2954589010827535e-05 -7.4558527310599951e-04 0.0000000000000000e+00  -2.4700534982703669e-05 -1.7441046874783889e-03 0.0000000000000000e+00  -3.5814032592069099e-05 -7.9166829383291160e-04 0.0000000000000000e+00  -1.2979976084058429e-05 -8.0933923189532321e-04 0.0000000000000000e+00  -2.2772717840794854e-05 -1.3742040231976035e-03 0.0000000000000000e+00  -7.8976419684187191e-06 -1.1050268315480562e-03 0.0000000000000000e+00  2.3176493406637624e-06 -8.1130485941574018e-04 0.0000000000000000e+00  2.3108639834293238e-07 -8.3372150001210208e-04 0.0000000000000000e+00  -7.0591284924959923e-06 -9.3139934257851045e-04 0.0000000000000000e+00  -1.6960704808002627e-05 -5.3650928887655170e-04 0.0000000000000000e+00  7.4749813944859672e-05 -2.8029128743690362e-03 0.0000000000000000e+00  -4.2832536407855795e-06 -8.6532032263293723e-04 0.0000000000000000e+00  -2.7068858391372430e-05 -7.0990410360793758e-04 0.0000000000000000e+00  -2.4981492367327821e-05 -8.0626364228974579e-04 0.0000000000000000e+00  -7.1670029270379906e-06 -2.2485957469546344e-04 0.0000000000000000e+00  -1.5629464889859495e-04 -2.7794353387896767e-03 0.0000000000000000e+00  4.0667479741213096e-06 -7.4988352826436085e-05 0.0000000000000000e+00  3.2128714870440074e-05 -1.2244697893379901e-03 0.0000000000000000e+00  3.0491907020455637e-05 -1.9264580554303932e-03 0.0000000000000000e+00  3.7024412972392540e-05 -2.2955979068397673e-03 0.0000000000000000e+00  -8.1225795107638335e-06 -8.0784767662284531e-04 0.0000000000000000e+00  3.3897534654047229e-05 -1.5423532244040032e-03 0.0000000000000000e+00  6.2535917216772460e-05 -2.5742703817032923e-03 0.0000000000000000e+00  2.2094876820733061e-05 -1.0106914304415873e-03 0.0000000000000000e+00  9.2503455962820769e-05 -2.7341716465573542e-03 0.0000000000000000e+00  -5.0343737145493184e-06 -8.1540253442939864e-04 0.0000000000000000e+00  -4.3472701046988283e-05 -7.6821243494502227e-04 0.0000000000000000e+00  -2.8819456765130777e-05 -3.8933053771248767e-04 0.0000000000000000e+00  -1.7816551199016775e-05 -2.7858626162972247e-03 0.0000000000000000e+00  8.3991582120466294e-05 -2.8088810664561974e-03 0.0000000000000000e+00  -1.2129985549057939e-06 -5.9754151578231133e-04 0.0000000000000000e+00  1.0354314758638393e-04 -2.7888044036232401e-03 0.0000000000000000e+00  -4.7148351925656467e-05 -6.1244063628632052e-04 0.0000000000000000e+00  5.0878256770478750e-05 -2.7747291707125974e-03 0.0000000000000000e+00  -2.0118690025746417e-05 -2.6291740851742931e-03 0.0000000000000000e+00  -8.5686640063164070e-05 -2.3582240909009863e-03 0.0000000000000000e+00  -5.0050070811400170e-05 -2.8095568091343012e-03 0.0000000000000000e+00  2.2450118398281159e-05 -3.6609992916961310e-04 0.0000000000000000e+00  -1.0852395683206576e-04 -1.6025083282973317e-03 0.0000000000000000e+00  -1.1536591934817324e-04 -1.9916635412214360e-03 0.0000000000000000e+00  1.0135377627622927e-06 -8.1254058119768389e-04 0.0000000000000000e+00  -2.2229710199693729e-05 -7.6714776996384684e-04 0.0000000000000000e+00  -7.9294343614458803e-05 -1.1900890688346841e-03 0.0000000000000000e+00  -6.0333945425362584e-05 -1.0345236018993664e-03 0.0000000000000000e+00  1.4733165103735045e-05 -8.2193815417800221e-04 0.0000000000000000e+00  -7.6638722714187209e-06 -1.2418528217911074e-05 0.0000000000000000e+00  4.3069834659163440e-06 -9.3140597913684668e-06 0.0000000000000000e+00  2.6701752440341544e-05 -9.0900579117722546e-04 0.0000000000000000e+00  -4.2210939041962981e-05 -7.9473709830773793e-04 0.0000000000000000e+00  -4.6769980748579353e-05 -6.7728728965182070e-04 0.0000000000000000e+00  -3.5680856932000956e-05 -1.8291253348075309e-04 0.0000000000000000e+00  -4.0391878509007579e-05 -2.7521381739008033e-04 0.0000000000000000e+00  2.0815615473031067e-05 -8.5919504674574463e-04 0.0000000000000000e+00  -4.7337367223175185e-05 -7.2274966209571188e-04 0.0000000000000000e+00  -2.8522660654223140e-05 -8.0532702140758740e-04 0.0000000000000000e+00  -4.4642534729098427e-05 -5.0710271321906285e-04 0.0000000000000000e+00  5.7520832080310230e-05 -2.8076802067774709e-03 0.0000000000000000e+00  6.4399605329096382e-05 -2.8043903315814935e-03 0.0000000000000000e+00  1.5246222017508994e-05 -5.0138443332760991e-04 0.0000000000000000e+00  -2.9195120288393806e-05 -1.0006818123507632e-04 0.0000000000000000e+00  -1.3574915268317896e-04 -2.8187085234630191e-03 0.0000000000000000e+00  -4.6948297415954676e-05 -8.9768356353217105e-04 0.0000000000000000e+00  -2.6747036726729974e-05 -8.4271030258311155e-04 0.0000000000000000e+00  1.2593408429312245e-06 -6.7607548145905160e-04 0.0000000000000000e+00  2.9145087002900652e-05 -1.7634665494988344e-04 0.0000000000000000e+00  3.1097800789062675e-05 -2.7306294603586788e-04 0.0000000000000000e+00  -2.1494383389652563e-05 -8.0197937450309420e-04 0.0000000000000000e+00  -6.9359962365854815e-06 -7.2567689952284485e-04 0.0000000000000000e+00  -1.0796051240111588e-05 -8.1075866929728217e-04 0.0000000000000000e+00  -2.0397165995913556e-05 -5.8081869264481178e-05 0.0000000000000000e+00  -1.9085757883301318e-04 -2.8162527404683928e-03 0.0000000000000000e+00  2.2683417354716290e-05 -2.7346629783118899e-03 0.0000000000000000e+00  -5.4701833220507059e-05 -2.5394751917517141e-03 0.0000000000000000e+00  2.4496619567538330e-05 -4.1932590135758928e-04 0.0000000000000000e+00  -1.1151782017132519e-04 -2.2238727746401237e-03 0.0000000000000000e+00  -4.7775705188933688e-06 -2.8108049651394277e-03 0.0000000000000000e+00  -1.2741469806497874e-04 -1.8381499926601458e-03 0.0000000000000000e+00  -1.1155224403978440e-04 -1.4639308974278070e-03 0.0000000000000000e+00  -2.3056304245510466e-05 -7.8468757288174828e-04 0.0000000000000000e+00  -9.7383930435191078e-05 -1.2974244568136214e-03 0.0000000000000000e+00  8.1950891927908199e-06 -8.1456547555566175e-04 0.0000000000000000e+00  -5.9918314260104462e-05 -9.6954683853521094e-04 0.0000000000000000e+00  1.8551915184484540e-05 -8.3344648792064448e-04 0.0000000000000000e+00  -1.1018494764310375e-04 -2.7683907160059367e-03 0.0000000000000000e+00  9.1475022724505709e-05 -2.8009367275793028e-03 0.0000000000000000e+00  -5.0715059473114210e-05 -5.7014787739930383e-04 0.0000000000000000e+00  2.5293562002255050e-05 -1.0377376819352408e-04 0.0000000000000000e+00  1.4015494908290155e-05 -4.6182627212540781e-05 0.0000000000000000e+00  7.0164001489708585e-05 -1.1432820557371131e-03 0.0000000000000000e+00  -1.7925670451775283e-05 -8.2034247930253641e-04 0.0000000000000000e+00  8.7366175343192728e-05 -1.4271629991388487e-03 0.0000000000000000e+00  9.2564479226340431e-05 -2.4894375119625580e-03 0.0000000000000000e+00  8.7698680267995824e-05 -1.7967254499913624e-03 0.0000000000000000e+00  8.5352977724598188e-05 -2.1786842025865779e-03 0.0000000000000000e+00  -8.2870621681544698e-06 -8.0630316070403512e-04 0.0000000000000000e+00  4.4171525245684919e-05 -9.6597136939062305e-04 0.0000000000000000e+00  -4.9425962266654754e-05 -7.7873861426566780e-04 0.0000000000000000e+00  -1.8399632267036095e-05 -8.0628458278899512e-04 0.0000000000000000e+00  1.1334486662219134e-04 -2.7565358294573106e-03 0.0000000000000000e+00  -5.1353433228699532e-05 -7.5059666191220828e-04 0.0000000000000000e+00  1.0107187886319795e-04 -2.6876001788884744e-03 0.0000000000000000e+00  -4.7490900655019519e-05 -4.3195350592862739e-04 0.0000000000000000e+00  -4.8493271667990314e-05 -3.4558407209473103e-04 0.0000000000000000e+00  -4.8260131579845288e-05 -2.7741538606896325e-03 0.0000000000000000e+00  2.2601536646260079e-05 -2.7893671516359599e-03 0.0000000000000000e+00  6.8945311444640935e-05 -2.4025220790060376e-03 0.0000000000000000e+00  6.2281091087959775e-05 -2.0600038796900473e-03 0.0000000000000000e+00  6.6759805011580253e-05 -1.3193380945521766e-03 0.0000000000000000e+00  9.2978477302237722e-05 -2.6361782576350512e-03 0.0000000000000000e+00  6.4759824470471381e-05 -1.6715234808253325e-03 0.0000000000000000e+00  5.1519379817591040e-05 -1.0707916600356296e-03 0.0000000000000000e+00  -7.5583633039334776e-06 -8.0792925614546279e-04 0.0000000000000000e+00  1.5412304632478054e-05 -5.6085442855761860e-04 0.0000000000000000e+00  8.1680355291186124e-05 -2.8153918452988782e-03 0.0000000000000000e+00  7.4001489747075358e-05 -2.8090560173640103e-03 0.0000000000000000e+00  6.9117140886280805e-06 -6.3035849264390378e-04 0.0000000000000000e+00  -7.13943631012481