<?xml version="1.0"?>
<VTKFile type="UnstructuredGrid"  version="0.1"  >
<UnstructuredGrid>
<Piece  NumberOfPoints="439" NumberOfCells="725">
<Points>
<DataArray  type="Float64"  NumberOfComponents="3"  format="ascii">0.57444423230173 0.0799041536483797 0  0.5826722581582716 0.09835843947481138 0  0.2489897949 0.21 0  0.2489897949 0.19 0  0.5785583380138832 0.08913093365616678 0  0.2496355385699469 0.2060260530378829 0  0.249959460510575 0.2020130349814059 0  0.2499594605105767 0.1979869650186357 0  0.24963553856995 0.1939739469621422 0  0.2541046456854767 0.2098442792047333 0  0.2592323566735847 0.2096745133725465 0  0.2643549550033997 0.2094585033096269 0  0.2694598179350694 0.2091079696176024 0  0.2745482457964753 0.2086850889543847 0  0.279631932757552 0.2081601514163972 0  0.2846913785834498 0.2075841179563387 0  0.28972301069624 0.2069197289868581 0  0.2947437277562004 0.2061860322389245 0  0.2997421365601706 0.2053856790504376 0  0.3047292860080862 0.2044961285785962 0  0.3097111673254658 0.2035922271988795 0  0.3146513064779052 0.2025949822608485 0  0.3195984824362295 0.2015448266169679 0  0.3245072095077883 0.2004535732921034 0  0.3294036128998162 0.1992970385107521 0  0.3342825974968071 0.1981048820330518 0  0.3391394380700106 0.1968522938801613 0  0.3439797284819574 0.1955764281623714 0  0.3488040194862053 0.1942491586080101 0  0.3536120746855947 0.1928872815669251 0  0.3584038669323943 0.191491284123939 0  0.3631884947187661 0.1900353124167569 0  0.3679720551997631 0.1885720249613395 0  0.3727352785675172 0.1870575362681899 0  0.3774885712217466 0.1855220755599537 0  0.3822334541240846 0.18394774735256 0  0.3869690717504436 0.1823453431436988 0  0.3916933987708018 0.1807158284581917 0  0.396411622037488 0.1790397312123614 0  0.4011294797601603 0.1773578491996574 0  0.4058238699048857 0.1756356736413839 0  0.4105096126671862 0.1738759941587747 0  0.4151930573053825 0.1721071491784021 0  0.4198518277587752 0.1702980887020589 0  0.4245122610024927 0.1684646910060986 0  0.4291495594180243 0.1666076120464981 0  0.4337834419202138 0.1647188643002074 0  0.4383985740176686 0.1628150225382012 0  0.443000051499304 0.1608864281156569 0  0.4475926274214385 0.1589407670757157 0  0.4521724896347935 0.1569768661844916 0  0.4567341903733617 0.1549985800912368 0  0.4612847182896401 0.1530089941193983 0  0.4658200479125401 0.1510081633753858 0  0.4703370570396555 0.148999742097933 0  0.4748412986862378 0.1469866449238924 0  0.4793309769786859 0.1449692105898321 0  0.4838061603489708 0.1429492090928377 0  0.4882713508694674 0.1409279202981553 0  0.4927270449443811 0.1389058365381128 0  0.4971746956417163 0.136881982632844 0  0.5016186170176302 0.1348568974933051 0  0.5060601780480011 0.1328313945245204 0  0.510500795324631 0.1308034167659069 0  0.5149441172558071 0.1287743162642945 0  0.5193922934010146 0.1267455979015138 0  0.5238474507701978 0.1247166284650863 0  0.5283088249306626 0.1226886389126958 0  0.5327815576385612 0.1206596594424796 0  0.5372693397553653 0.1186313258760667 0  0.5417628296951161 0.1166059029888312 0  0.5462727480166061 0.1145817579405896 0  0.550795730941642 0.1125613456906863 0  0.5553290260180753 0.110537288630346 0  0.5598760638409296 0.1085121353284487 0  0.5644268545252031 0.106486439924456 0  0.5689849904543443 0.104456693490413 0  0.5735480853967863 0.1024253286552165 0  0.5781097731201347 0.1003926389430448 0  0.5698832407037915 0.08193822331256162 0  0.5653217201968455 0.08397438258381432 0  0.5607592221708825 0.0860111792784389 0  0.556197842191699 0.08805354308904628 0  0.5516409908525092 0.09010010996647512 0  0.547087909001451 0.09215230800402811 0  0.5425456459485416 0.09421083371745251 0  0.5380132134147338 0.09627649269643093 0  0.5334932852015914 0.09834470604044065 0  0.5289895354310719 0.1004154143396478 0  0.5244977382044806 0.1024885720474922 0  0.5200219869875685 0.1045579618323894 0  0.5155623263132444 0.1066222780075886 0  0.5111091650013079 0.1086872450212225 0  0.5066680525312102 0.1107425388536323 0  0.5022350982755401 0.1127877961204922 0  0.4978061303708066 0.1148298971204269 0  0.4933776711662792 0.1168600888336804 0  0.4889472472261258 0.1188795183042077 0  0.4845172869030185 0.1208943442749786 0  0.4800771293591342 0.1228994090730783 0  0.4756286585700449 0.1248956196530951 0  0.4711775678588709 0.1268881385205489 0  0.4667115589713854 0.1288727997552341 0  0.4622371886854624 0.1308482806611331 0  0.4577582342655681 0.1328202987908085 0  0.4532675722148943 0.1347821693887439 0  0.4487702171301193 0.1367292117063302 0  0.444270056367481 0.1386746698420518 0  0.4397556153681398 0.1406018577571784 0  0.4352404183748124 0.1425007400846422 0  0.4307249875914139 0.1443947533938956 0  0.4261973086939291 0.1462580558595522 0  0.4216631515932496 0.1481065912852616 0  0.4171215559501271 0.1499268056022487 0  0.4125670925211614 0.1517143519918693 0  0.4080132854304307 0.153482255634738 0  0.4034442543405801 0.1552194742923166 0  0.398870850112532 0.1569306800096042 0  0.3942902284198939 0.1586126152476753 0  0.3896988544529667 0.1602661418554583 0  0.3850951517260187 0.1618995534890378 0  0.3804841402495092 0.1635017092242875 0  0.3758836288527236 0.1650782008465471 0  0.3712657268656889 0.1666208242308784 0  0.3666558408607953 0.1681233205752227 0  0.3620315688618216 0.1695996182999699 0  0.3574050730523299 0.171029280918007 0  0.3527672778603815 0.1724315678269318 0  0.3481190427737219 0.1737888717290834 0  0.3434824644520273 0.175111492328049 0  0.3388186773986462 0.1763907282350976 0  0.3341624356050716 0.1776175489887968 0  0.3294776354843301 0.1788110052131572 0  0.3247873150871385 0.179938154886008 0  0.3201005135967922 0.1810500349459383 0  0.3153925959686669 0.1820912245151089 0  0.3107024040799111 0.1830789270398097 0  0.3059808653148795 0.1840197491917185 0  0.3012551677107355 0.1848835409910607 0  0.2965177887865303 0.1857057045155333 0  0.2917691525231355 0.1864530523699624 0  0.2870406047065551 0.1871469344038971 0  0.2822771310439977 0.18777062901463 0  0.2775397051448838 0.1883203282333186 0  0.272774650044024 0.1887811298511448 0  0.2680335310342585 0.1891641999190151 0  0.2632732043035942 0.1894902872629652 0  0.2585100149994979 0.1897208280184355 0  0.2537497400578881 0.1898417757605338 0  0.5765012288565635 0.0845174747048556 0  0.5806153978826819 0.09374404594548259 0  0.258993679229799 0.2003886805299118 0  0.5264054352629648 0.1126085926299276 0  0.5492734153408309 0.1021897819447387 0  0.2774701632665115 0.1992738277889466 0  0.5000133047202479 0.1246157845446745 0  0.513321695318676 0.1185095200096407 0  0.2941900753613635 0.1955624955939755 0  0.5624802556246472 0.09579885095327979 0  0.3099140271868205 0.1934525510327023 0  0.3359214256718899 0.1883455089928091 0  0.4867000799663165 0.1306772336125206 0  0.3532470015343837 0.182702186003087 0  0.4733174230398274 0.1367012584210202 0  0.3679551462338163 0.1782225384341563 0  0.3860761617179267 0.1721525067880047 0  0.4593512021049774 0.1425051930385074 0  0.4459513156559711 0.1488213106934947 0  0.3997333223077095 0.1673907002405302 0  0.4139236115696707 0.1619416154159928 0  0.4316992204430352 0.1548122395613835 0  0.3195105500138501 0.1914701504561137 0  0.5402744333930587 0.1062772588911973 0  0.421794418741342 0.1586832301041543 0  0.3451400348362341 0.18517496893633 0  0.3780738323536985 0.1750467603562811 0  0.2859435247608561 0.1974832112250304 0  0.569644635242104 0.0911650292247059 0  0.2680817016910176 0.2009854451051857 0  0.4536516430494382 0.1479392922741627 0  0.4806489734951023 0.1359614802529585 0  0.4939983991385165 0.1299151480462611 0  0.3923121334724688 0.167578209572023 0  0.4672055257427001 0.1419770924704893 0  0.5073052431524233 0.1238340090204565 0  0.4399965962950551 0.1537917214348691 0  0.52063954814475 0.1177175101054567 0  0.4061994316089058 0.1624824576870806 0  0.3596600610378748 0.1784469621014221 0  0.3026276289219376 0.1925680558830297 0  0.5548335308106286 0.09723938948579658 0  0.5318500413412047 0.1069611913111595 0  0.3278703830708858 0.192442768752802 0  0.5327735051386003 0.1139152940765147 0  0.328286897542794 0.1854631127151264 0  0.5200781876151421 0.1112655930979577 0  0.5067389522638293 0.1174109509593975 0  0.4934437214876798 0.1235035243726298 0  0.5593712564393487 0.1019733264388943 0  0.3015205868043914 0.1989577695457183 0  0.466714303635733 0.1355349043309242 0  0.4801193728827328 0.1295416759211228 0  0.3922966619908365 0.1740620080430301 0  0.3593363404650259 0.1849017879896335 0  0.4492084158353028 0.1432116320346265 0  0.4396380870847143 0.1473094329470048 0  0.4063036781493318 0.1689694956354336 0  0.255707578688073 0.1960151143109181 0  0.2550740364486372 0.2033849916315662 0  0.4295161132833879 0.1597866047157505 0  0.370485869664888 0.1734376159123246 0  0.3382024588775161 0.182823550492519 0  0.2807721202214661 0.1941147765235951 0  0.290545954917589 0.1928572315325703 0  0.4201372610674314 0.1637364111118073 0  0.3472917543496213 0.1803304131226223 0  0.3799732674288461 0.1700859827351518 0  0.3151999777209789 0.1884739264423076 0  0.5452669494923268 0.1081953968812866 0  0.5423488987229037 0.1010181306405253 0  0.3163886805231553 0.1960657029483644 0  0.270728062838258 0.1950356137512279 0  0.5687840444488695 0.09871303194112915 0  0.4262600994218718 0.1521570260575099 0  0.4168625924020193 0.1563678032850325 0  0.3400619314288971 0.1913177019339454 0  0.2813156140044586 0.2028144130244017 0  0.2919070139779049 0.2014188776489663 0  0.3731659343678195 0.1812526004347255 0  0.3495113754177941 0.1891126446618874 0  0.3826641995918451 0.1787625800013838 0  0.264590238766016 0.1957139223168546 0  0.5749842191813126 0.09519535058909301 0  0.5146305970611154 0.1132472151324964 0  0.5013168287980984 0.1193763327137898 0  0.307356008509169 0.1983666289512079 0  0.4880187953948992 0.1254474960861741 0  0.5542193221083886 0.1047992379390895 0  0.4746678743298169 0.1314663030523899 0  0.4612659929757555 0.137416945525437 0  0.3650466563208639 
[...]
<PointData  Vectors="d"> 
<DataArray  type="Float64"  Name="d"  NumberOfComponents="3" format="ascii">-2.5555767698269838e-02 -1.1009584635162034e-01 0.0000000000000000e+00  -1.7327741841728323e-02 -1.1164156052518864e-01 0.0000000000000000e+00  0.0000000000000000e+00 0.0000000000000000e+00 0.0000000000000000e+00  0.0000000000000000e+00 0.0000000000000000e+00 0.0000000000000000e+00  -2.1441661986116970e-02 -1.1086906634383327e-01 0.0000000000000000e+00  0.0000000000000000e+00 0.0000000000000000e+00 0.0000000000000000e+00  0.0000000000000000e+00 0.0000000000000000e+00 0.0000000000000000e+00  0.0000000000000000e+00 0.0000000000000000e+00 0.0000000000000000e+00  0.0000000000000000e+00 0.0000000000000000e+00 0.0000000000000000e+00  1.7104507984748275e-04 -1.5572079526671441e-04 0.0000000000000000e+00  3.5495036233041701e-04 -3.2548662745355504e-04 0.0000000000000000e+00  5.3374298650755026e-04 -5.4149669037304653e-04 0.0000000000000000e+00  6.9480021253945650e-04 -8.9203038239760971e-04 0.0000000000000000e+00  8.3942236831837313e-04 -1.3149110456153450e-03 0.0000000000000000e+00  9.7930362377664964e-04 -1.8398485836027341e-03 0.0000000000000000e+00  1.0949437440561755e-03 -2.4158820436612754e-03 0.0000000000000000e+00  1.1827701512234267e-03 -3.0802710131419314e-03 0.0000000000000000e+00  1.2596815055482267e-03 -3.8139677610754190e-03 0.0000000000000000e+00  1.3142846038996837e-03 -4.6143209495623999e-03 0.0000000000000000e+00  1.3576283461864071e-03 -5.5038714214039148e-03 0.0000000000000000e+00  1.3957039579477390e-03 -6.4077728011204382e-03 0.0000000000000000e+00  1.3920374047685874e-03 -7.4050177391515402e-03 0.0000000000000000e+00  1.3954076574746099e-03 -8.4551733830320799e-03 0.0000000000000000e+00  1.3603290234150817e-03 -9.5464267078965766e-03 0.0000000000000000e+00  1.3129267098245438e-03 -1.0702961489247946e-02 0.0000000000000000e+00  1.2481056011863626e-03 -1.1895117966948161e-02 0.0000000000000000e+00  1.1611404687821235e-03 -1.3147706119838671e-02 0.0000000000000000e+00  1.0576251750997650e-03 -1.4423571837628543e-02 0.0000000000000000e+00  9.3811047372923371e-04 -1.5750841391989824e-02 0.0000000000000000e+00  8.0235996750021026e-04 -1.7112718433074901e-02 0.0000000000000000e+00  6.5034650868164747e-04 -1.8508715876061069e-02 0.0000000000000000e+00  4.9116858943510570e-04 -1.9964687583242994e-02 0.0000000000000000e+00  3.3092336481360842e-04 -2.1427975038660528e-02 0.0000000000000000e+00  1.5034102693841934e-04 -2.2942463731810071e-02 0.0000000000000000e+00  -4.0172024441126905e-05 -2.4477924440046282e-02 0.0000000000000000e+00  -2.3909482772756054e-04 -2.6052252647440030e-02 0.0000000000000000e+00  -4.4728290699014035e-04 -2.7654656856301144e-02 0.0000000000000000e+00  -6.6676159226143714e-04 -2.9284171541808301e-02 0.0000000000000000e+00  -8.9234403118256997e-04 -3.0960268787638627e-02 0.0000000000000000e+00  -1.1182920141382089e-03 -3.2642150800342731e-02 0.0000000000000000e+00  -1.3677075750250756e-03 -3.4364326358616096e-02 0.0000000000000000e+00  -1.6257705183449021e-03 -3.6124005841225312e-02 0.0000000000000000e+00  -1.8861315857693261e-03 -3.7892850821597872e-02 0.0000000000000000e+00  -2.1711668379883866e-03 -3.9701911297941143e-02 0.0000000000000000e+00  -2.4545392998991809e-03 -4.1535308993901364e-02 0.0000000000000000e+00  -2.7610465900007835e-03 -4.3392387953501872e-02 0.0000000000000000e+00  -3.0709697934634783e-03 -4.5281135699792620e-02 0.0000000000000000e+00  -3.3996434016642344e-03 -4.7184977461798748e-02 0.0000000000000000e+00  -3.7419716256928857e-03 -4.9113571884343024e-02 0.0000000000000000e+00  -4.0932014092060660e-03 -5.1059232924284326e-02 0.0000000000000000e+00  -4.4571449014929850e-03 -5.3023133815508564e-02 0.0000000000000000e+00  -4.8392498685543841e-03 -5.5001419908763172e-02 0.0000000000000000e+00  -5.2325276579265213e-03 -5.6991005880601783e-02 0.0000000000000000e+00  -5.6410037406597942e-03 -5.8991836624614151e-02 0.0000000000000000e+00  -6.0678003192112381e-03 -6.1000257902067020e-02 0.0000000000000000e+00  -6.5073643782756060e-03 -6.3013355076107599e-02 0.0000000000000000e+00  -6.9614917914901341e-03 -6.5030789410167891e-02 0.0000000000000000e+00  -7.4301141268358333e-03 -6.7050790907162303e-02 0.0000000000000000e+00  -7.9087293119936269e-03 -6.9072079701844633e-02 0.0000000000000000e+00  -8.3968409427084313e-03 -7.1094163461887183e-02 0.0000000000000000e+00  -8.8929959510328695e-03 -7.3118017367155952e-02 0.0000000000000000e+00  -9.3928802807573594e-03 -7.5143102506694884e-02 0.0000000000000000e+00  -9.8951249560028411e-03 -7.7168605475479587e-02 0.0000000000000000e+00  -1.0398313385010334e-02 -7.9196583234093121e-02 0.0000000000000000e+00  -1.0898797159493488e-02 -8.1225683735705448e-02 0.0000000000000000e+00  -1.1394426719924538e-02 -8.3254402098486183e-02 0.0000000000000000e+00  -1.1883075056400801e-02 -8.5283371534913735e-02 0.0000000000000000e+00  -1.2365506601574016e-02 -8.7311361087304168e-02 0.0000000000000000e+00  -1.2836579599291761e-02 -8.9340340557520340e-02 0.0000000000000000e+00  -1.3292603188125579e-02 -9.1368674123933361e-02 0.0000000000000000e+00  -1.3742918954029680e-02 -9.3394097011168714e-02 0.0000000000000000e+00  -1.4176806338182494e-02 -9.5418242059410407e-02 0.0000000000000000e+00  -1.4597629118806174e-02 -9.7438654309313630e-02 0.0000000000000000e+00  -1.5008139748036078e-02 -9.9462711369653997e-02 0.0000000000000000e+00  -1.5404907630816360e-02 -1.0148786467155137e-01 0.0000000000000000e+00  -1.5797922652180531e-02 -1.0351356007554402e-01 0.0000000000000000e+00  -1.6183592428689837e-02 -1.0554330650958696e-01 0.0000000000000000e+00  -1.6564303191894583e-02 -1.0757467134478353e-01 0.0000000000000000e+00  -1.6946421174205896e-02 -1.0960736105695526e-01 0.0000000000000000e+00  -2.5172953590591577e-02 -1.0806177668743834e-01 0.0000000000000000e+00  -2.4790668391912695e-02 -1.0602561741618569e-01 0.0000000000000000e+00  -2.4409360712236785e-02 -1.0398882072156108e-01 0.0000000000000000e+00  -2.4026934985773622e-02 -1.0194645691095371e-01 0.0000000000000000e+00  -2.3639980619342263e-02 -9.9899890033524896e-02 0.0000000000000000e+00  -2.3249256764780256e-02 -9.7847691995971930e-02 0.0000000000000000e+00  -2.2847714112076610e-02 -9.5789166282547522e-02 0.0000000000000000e+00  -2.2436340940254960e-02 -9.3723507303569056e-02 0.0000000000000000e+00  -2.2012463447766552e-02 -9.1655293959559375e-02 0.0000000000000000e+00  -2.1572407512631731e-02 -8.9584585660352184e-02 0.0000000000000000e+00  -2.1120399033623706e-02 -8.7511427952507798e-02 0.0000000000000000e+00  -2.0652344544936471e-02 -8.5442038167610673e-02 0.0000000000000000e+00  -2.0168199513651668e-02 -8.3377721992411447e-02 0.0000000000000000e+00  -1.9677555119955031e-02 -8.1312754978777477e-02 0.0000000000000000e+00  -1.9174861884452641e-02 -7.9257461146367614e-02 0.0000000000000000e+00  -1.8664010434484377e-02 -7.7212203879507738e-02 0.0000000000000000e+00  -1.8149172633615294e-02 -7.5170102879573139e-02 0.0000000000000000e+00  -1.7633826132543384e-02 -7.3139911166319543e-02 0.0000000000000000e+00  -1.7120444367091935e-02 -7.1120481695792256e-02 0.0000000000000000e+00  -1.6606598984561925e-02 -6.9105655725021406e-02 0.0000000000000000e+00  -1.6102950822837771e-02 -6.7100590926921680e-02 0.0000000000000000e+00  -1.5607615906308254e-02 -6.5104380346904897e-02 0.0000000000000000e+00  -1.5114900911863405e-02 -6.3111861479451040e-02 0.0000000000000000e+00  -1.4637104093719090e-02 -6.1127200244765895e-02 0.0000000000000000e+00  -1.4167668674034213e-02 -5.9151719338866871e-02 0.0000000000000000e+00  -1.3702817388300207e-02 -5.7179701209191532e-02 0.0000000000000000e+00  -1.3249673733361094e-02 -5.5217830611256027e-02 0.0000000000000000e+00  -1.2803223112515614e-02 -5.3270788293669713e-02 0.0000000000000000e+00  -1.2359578169529262e-02 -5.1325330157948178e-02 0.0000000000000000e+00  -1.1930213463241008e-02 -4.9398142242821581e-02 0.0000000000000000e+00  -1.1501604750959279e-02 -4.7499259915357826e-02 0.0000000000000000e+00  -1.1073229828732703e-02 -4.5605246606104440e-02 0.0000000000000000e+00  -1.0657103020600561e-02 -4.3741944140447880e-02 0.0000000000000000e+00  -1.0247454415663477e-02 -4.1893408714738366e-02 0.0000000000000000e+00  -9.8452443531595567e-03 -4.0073194397751227e-02 0.0000000000000000e+00  -9.4559020764868346e-03 -3.8285648008130703e-02 0.0000000000000000e+00  -9.0659034615749798e-03 -3.6517744365261978e-02 0.0000000000000000e+00  -8.6911288457792550e-03 -3.4780525707683495e-02 0.0000000000000000e+00  -8.3207273681675815e-03 -3.3069319990395807e-02 0.0000000000000000e+00  -7.9575433551538864e-03 -3.1387384752324700e-02 0.0000000000000000e+00  -7.6051116164235263e-03 -2.9733858144541794e-02 0.0000000000000000e+00  -7.2650086377360340e-03 -2.8100446510962173e-02 0.0000000000000000e+00  -6.9322144085990772e-03 -2.6498290775712544e-02 0.0000000000000000e+00  -6.5889200997585875e-03 -2.4921799153452842e-02 0.0000000000000000e+00  -6.2630163811370427e-03 -2.3379175769121588e-02 0.0000000000000000e+00  -5.9290966803819739e-03 -2.1876679424777314e-02 0.0000000000000000e+00  -5.6095629736868709e-03 -2.0400381700030105e-02 0.0000000000000000e+00  -5.2922530775315387e-03 -1.8970719081993038e-02 0.0000000000000000e+00  -4.9862425638293236e-03 -1.7568432173068142e-02 0.0000000000000000e+00  -4.6906719448670791e-03 -1.6211128270916697e-02 0.0000000000000000e+00  -4.3834445609036632e-03 -1.4888507671951007e-02 0.0000000000000000e+00  -4.1034259086457185e-03 -1.3609271764902391e-02 0.0000000000000000e+00  -3.8158619965819747e-03 -1.2382451011203197e-02 0.0000000000000000e+00  -3.5568564116849619e-03 -1.1188994786842729e-02 0.0000000000000000e+00  -3.3033711032363811e-03 -1.0061845113991913e-02 0.0000000000000000e+00  -3.0463668879250009e-03 -8.9499650540616430e-03 0.0000000000000000e+00  -2.8104788103920685e-03 -7.9087754848910195e-03 0.0000000000000000e+00  -2.5568649934900084e-03 -6.9210729601904917e-03 0.0000000000000000e+00  -2.3345980528785737e-03 -5.9802508082814733e-03 0.0000000000000000e+00  -2.1164899513840514e-03 -5.1164590089392099e-03 0.0000000000000000e+00  -1.9100631699509026e-03 -4.2942954844666812e-03 0.0000000000000000e+00  -1.7148937277075692e-03 -3.5469476300375551e-03 0.0000000000000000e+00  -1.4996358386322132e-03 -2.8530655961029540e-03 0.0000000000000000e+00  -1.3193037955318314e-03 -2.2293709853699441e-03 0.0000000000000000e+00  -1.1129239889878285e-03 -1.6796717666814726e-03 0.0000000000000000e+00  -9.3417338420041839e-04 -1.2188701488551840e-03 0.0000000000000000e+00  -7.3148668832762086e-04 -8.3580008098494806e-04 0.0000000000000000e+00  -5.4800771335347242e-04 -5.0971273703475642e-04 0.0000000000000000e+00  -3.6739131181115795e-04 -2.7917198156441963e-04 0.0000000000000000e+00  -1.8386054776990508e-04 -1.5822423946610837e-04 0.0000000000000000e+00  -2.3498771143436462e-02 -1.1048252529512270e-01 0.0000000000000000e+00  -1.9384602117318215e-02 -1.1125595405449029e-01 0.0000000000000000e+00  2.0252698149793543e-05 -1.6370881292852702e-04 0.0000000000000000e+00  -1.6740799122342619e-02 -8.7391407370041432e-02 0.0000000000000000e+00  -1.8966374135985127e-02 -9.7780676636159955e-02 0.0000000000000000e+00  1.8770554709182130e-05 -1.5203641532460369e-03 0.0000000000000000e+00  -1.3836278656649116e-02 -7.5286558104417353e-02 0.0000000000000000e+00  -1.5359305175062040e-02 -8.1392822639456075e-02 0.0000000000000000e+00  -3.2081984440121482e-04 -3.7286952465630792e-03 0.0000000000000000e+00  -2.0297827513845384e-02 -1.0374412914705512e-01 0.0000000000000000e+00  -4.9881247010495557e-04 -6.5179075481954767e-03 0.0000000000000000e+00  -1.0787498699652157e-03 -1.2483952250587663e-02 0.0000000000000000e+00  -1.2318086293729484e-02 -6.9225109036569601e-02 0.0000000000000000e+00  -2.0346160365207130e-03 -1.7297813996973905e-02 0.0000000000000000e+00  -1.0869326103365185e-02 -6.3201084228064697e-02 0.0000000000000000e+00  -2.7822251567388091e-03 -2.1791699261212667e-02 0.0000000000000000e+00  -3.8120957923228191e-03 -2.7847493212078151e-02 0.0000000000000000e+00  -9.6345529442960608e-03 -5.7036479387162040e-02 0.0000000000000000e+00  -8.2064160282255012e-03 -5.1178689306414955e-02 0.0000000000000000e+00  -4.6201690941235878e-03 -3.2706957110394251e-02 0.0000000000000000e+00  -5.6274801742861400e-03 -3.8058384584112905e-02 0.0000000000000000e+00  -7.0027574214159161e-03 -4.5173522743293740e-02 0.0000000000000000e+00  -7.3672501182016727e-04 -8.5387337585261219e-03 0.0000000000000000e+00  -1.8130920715026404e-02 -9.3713856894160411e-02 0.0000000000000000e+00  -6.2722959473714935e-03 -4.1165674716669771e-02 0.0000000000000000e+00  -1.6259597903133692e-03 -1.4976126243107426e-02 0.0000000000000000e+00  -3.2988022121922039e-03 -2.5104334823170867e-02 0.0000000000000000e+00  -1.2481293135368547e-04 -2.5583333455877540e-03 0.0000000000000000e+00  -2.1477745936015563e-02 -1.0707988671016848e-01 0.0000000000000000e+00  9.2385545154952692e-05 -6.8968054154337039e-04 0.0000000000000000e+00  -7.9217971931896478e-03 -5.4311071054637651e-02 0.0000000000000000e+00  -1.0587300981242932e-02 -6.6288883075850680e-02 0.0000000000000000e+00  -1.2069292454681914e-02 -7.2335215282550699e-02 0.0000000000000000e+00  -4.9918325962086891e-03 -3.0171427099173514e-02 0.0000000000000000e+00  -9.1993316167895307e-03 -6.0273270858315783e-02 0.0000000000000000e+00  -1.3593865557622322e-02 -7.8416354308361955e-02 0.0000000000000000e+00  -6.7454268307104576e-03 -4.8458641893930815e-02 0.0000000000000000e+00  -1.5090977682134720e-02 -8.4532853223363139e-02 0.0000000000000000e+00  -5.9359515766257672e-03 -3.5267178984117117e-02 0.0000000000000000e+00  -3.0372650914603561e-03 -1.9302674569769796e-02 0.0000000000000000e+00  -7.4402873995851068e-04 -5.1815807881571696e-03 0.0000000000000000e+00  -2.0447440661194277e-02 -1.0051024718535372e-01 0.0000000000000000e+00  -1.8609814577851394e-02 -9.0167287162607176e-02 0.0000000000000000e+00  -3.2239014379835114e-04 -1.0428752773438634e-02 0.0000000000000000e+00  -1.5644396911145674e-02 -8.9925027492961579e-02 0.0000000000000000e+00  -1.9478295412047575e-03 -1.0696565715422691e-02 0.0000000000000000e+00  -1.7842897608669236e-02 -8.4859588566453301e-02 0.0000000000000000e+00  -1.6350715843135907e-02 -7.8714230705008228e-02 0.0000000000000000e+00  -1.4814529502442332e-02 -7.2621657291779981e-02 0.0000000000000000e+00  -1.8100274429360450e-02 -1.0190149189669437e-01 0.0000000000000000e+00  3.3948853943660865e-04 -4.9170487898754127e-03 0.0000000000000000e+00  -1.1881113120678027e-02 -6.0590277333479776e-02 0.0000000000000000e+00  -1.3307460990534290e-02 -6.6583505743283505e-02 0.0000000000000000e+00  -2.8167446809265681e-03 -2.9812810292566543e-02 0.0000000000000000e+00  -1.1704262673858418e-03 -1.8973030345961577e-02 0.0000000000000000e+00  -1.0174465010411712e-02 -5.2913549629772745e-02 0.0000000000000000e+00  -9.2944954379661250e-03 -4.8815748717395906e-02 0.0000000000000000e+00  -3.6411456392903127e-03 -3.4905322700165449e-02 0.0000000000000000e+00  -7.8721292124109090e-05 -7.0722714811458158e-05 0.0000000000000000e+00  5.9300417697483099e-05 -5.7651367545270831e-05 0.0000000000000000e+00  -5.2870343630809719e-03 -4.3987153048404913e-02 0.0000000000000000e+00  -4.1503319435219500e-03 -2.2788626323530719e-02 0.0000000000000000e+00  -2.4233777089145117e-03 -1.3223241701469955e-02 0.0000000000000000e+00  -5.2804789751726366e-04 -1.9320156704550405e-03 0.0000000000000000e+00  -7.2268382640026604e-04 -3.2244013323579463e-03 0.0000000000000000e+00  -4.5332725145578248e-03 -4.0216796694147072e-02 0.0000000000000000e+00  -2.8704213832917093e-03 -1.5716379071565516e-02 0.0000000000000000e+00  -4.7955482434233285e-03 -2.5960809459084133e-02 0.0000000000000000e+00  -1.4323908173770055e-03 -7.6855321210622845e-03 0.0000000000000000e+00  -1.6888051613014328e-02 -9.5586252378612485e-02 0.0000000000000000e+00  -2.0092488979073266e-02 -9.5058061720612458e-02 0.0000000000000000e+00  1.4917693984251842e-04 -7.8022527941047195e-03 0.0000000000000000e+00  -3.6065058250416275e-04 -9.3403058135589222e-04 0.0000000000000000e+00  -1.8517393191490889e-02 -1.0600975616195316e-01 0.0000000000000000e+00  -8.4078572223991715e-03 -4.3308119897741415e-02 0.0000000000000000e+00  -7.4670580057792256e-03 -3.9507894808873720e-02 0.0000000000000000e+00  -1.9401965445521742e-04 -1.3476348095146874e-02 0.0000000000000000e+00  4.4712132836539486e-04 -1.9598287568639260e-03 0.0000000000000000e+00  4.9931066403265719e-04 -3.3620740581291925e-03 0.0000000000000000e+00  -1.6054582426736875e-03 -2.3282253610129901e-02 0.0000000000000000e+00  -4.1027347209246311e-04 -1.6062696656743074e-02 0.0000000000000000e+00  -1.8640892373846959e-03 -2.6412761317252120e-02 0.0000000000000000e+00  -2.2424777948936212e-04 -4.9505198178282988e-04 0.0000000000000000e+00  -1.9340545184976896e-02 -1.0884619176982520e-01 0.0000000000000000e+00  -1.7466663984499003e-02 -8.2397294772590723e-02 0.0000000000000000e+00  -1.5949015130674340e-02 -7.6268177191295541e-02 0.0000000000000000e+00  3.6368294890321684e-04 -5.9801744360472343e-03 0.0000000000000000e+00  -1.4415631417027248e-02 -7.0197013818912246e-02 0.0000000000000000e+00  -1.7440981465046260e-02 -9.9547565448186617e-02 0.0000000000000000e+00  -1.2935135365257179e-02 -6.4178206852693293e-02 0.0000000000000000e+00  -1.1549204553870759e-02 -5.8223301365552378e-02 0.0000000000000000e+00  -1.2835213318899482e-03 -2.0706773165339327e-02 0.0000000000000000e+00  -1.0864940550937108e-02 -5.5166754424765305e-02 0.0000000000000000e+00  -2.9730090142953999e-03 -3.1811828128671074e-02 0.0000000000000000e+00  -9.0165496940188480e-03 -4.6526918980889363e-02 0.0000000000000000e+00  -3.8232077993439529e-03 -3.7004938611330515e-02 0.0000000000000000e+00  -2.2170980326214250e-02 -1.0498037333479461e-01 0.0000000000000000e+00  -1.5921578057362218e-02 -9.2347698273231152e-02 0.0000000000000000e+00  -1.8556206440808153e-03 -9.3615336623634401e-03 0.0000000000000000e+00  3.7262475504603611e-04 -1.0427351668398992e-03 0.0000000000000000e+00  2.0487906443778685e-04 -4.0740714744466058e-04 0.0000000000000000e+00  -6.5837882453875663e-03 -5.2617431911458651e-02 0.0000000000000000e+00  -7.0539288783411222e-03 -3.6760848023591933e-02 0.0000000000000000e+00  -7.8075007271389933e-03 -5.8563460937798108e-02 0.0000000000000000e+00  -1.2150570436625126e-02 -7.6677235368968866e-02 0.0000000000000000e+00  -9.1876521779248217e-03 -6.4562282257875775e-02 0.0000000000000000e+00  -1.0637483367362571e-02 -7.0606657362516131e-02 0.0000000000000000e+00  -5.8503248191027011e-03 -3.1753916386957480e-02 0.0000000000000000e+00  -5.5351752563216885e-03 -4.6830738621469678e-02 0.0000000000000000e+00  -3.9334300674502658e-03 -2.0571013402567638e-02 0.0000000000000000e+00  -5.4971352199937665e-03 -2.8446651144238860e-02 0.0000000000000000e+00  -1.4561735282171485e-02 -8.6735716529549228e-02 0.0000000000000000e+00  -3.4689517063388638e-03 -1.7831289314342857e-02 0.0000000000000000e+00  -1.3931400190492703e-02 -8.2634592859630707e-02 0.0000000000000000e+00  -1.2708740530281233e-03 -5.9798919323001661e-03 0.0000000000000000e+00  -1.0297984867282963e-03 -4.3398154675546082e-03 0.0000000000000000e+00  -2.1701318734462179e-02 -1.0215046134797759e-01 0.0000000000000000e+00  -2.1056036502977996e-02 -9.8340861834774265e-02 0.0000000000000000e+00  -1.2059478935110078e-02 -7.4585186540755272e-02 0.0000000000000000e+00  -1.0558090065593981e-02 -6.8525865563015542e-02 0.0000000000000000e+00  -7.7089480370006822e-03 -5.6452987250700061e-02 0.0000000000000000e+00  -1.3467454657170979e-02 -8.0639676710674596e-02 0.0000000000000000e+00  -9.1372631584752551e-03 -6.2493449545360187e-02 0.0000000000000000e+00  -6.4814504409252370e-03 -5.0559339613950247e-02 0.0000000000000000e+00  -6.1445339891092448e-03 -3.3411698487728417e-02 0.0000000000000000e+00  1.9681733374369667e-04 -9.4111637278832712e-03 0.0000000000000000e+00  -1.9787267192872906e-02 -9.1966249868032091e-02 0.0000000000000000e+00  -1.8875316658291827e-02 -8.8066959756584948e-02 0.0000000000000000e+00  -4.