<?xml version="1.0"?>
<VTKFile type="UnstructuredGrid"  version="0.1"  >
<UnstructuredGrid>
<Piece  NumberOfPoints="439" NumberOfCells="725">
<Points>
<DataArray  type="Float64"  NumberOfComponents="3"  format="ascii">0.5999921139094809 0.1860493554488803 0  0.6000049536333265 0.2060493734498512 0  0.2489897949 0.21 0  0.2489897949 0.19 0  0.5999985315838641 0.196049343100572 0  0.2496355385699469 0.2060260530378829 0  0.249959460510575 0.2020130349814059 0  0.2499594605105767 0.1979869650186357 0  0.24963553856995 0.1939739469621422 0  0.2539540515148702 0.2099809965917986 0  0.2589188786221902 0.209960899574436 0  0.2638828839895761 0.2099359653240683 0  0.2688450333243855 0.2098969682576103 0  0.2738053644190017 0.2098510689031739 0  0.2787656151471999 0.2097951929614301 0  0.2837235931155357 0.2097348425299646 0  0.2886794617692309 0.2096662608646231 0  0.293634778992445 0.2095917413887303 0  0.2985886525896647 0.2095116620067524 0  0.3035424212492124 0.2094247469165476 0  0.3084955375712141 0.209336979779958 0  0.313446312154422 0.2092421750365718 0  0.3183977563783554 0.2091443912929795 0  0.3233468171559155 0.2090437697708077 0  0.3282954046197272 0.2089399369792971 0  0.3332428954591584 0.2088343752929901 0  0.338189443360745 0.208726337268243 0  0.3431350427936219 0.2086178702295423 0  0.3480798472757073 0.2085081795664017 0  0.3530238730054842 0.2083980041966838 0  0.357967197163127 0.2082879650938267 0  0.362909599887638 0.2081785916864879 0  0.3678513861968029 0.2080696161806316 0  0.3727925202992117 0.2079619555429162 0  0.3777332922266137 0.2078556156449975 0  0.3826733523653535 0.207751217105085 0  0.3876130030919563 0.2076486275651312 0  0.3925524474205669 0.2075483742081773 0  0.3974907256481739 0.2074520788093563 0  0.4024285304210794 0.2073563572006749 0  0.4073667497438223 0.2072650540303843 0  0.4123040786237313 0.2071779068173677 0  0.4172410728956691 0.2070918662683285 0  0.4221785543428184 0.2070111288235977 0  0.4271146595285918 0.2069330788846503 0  0.4320517897350581 0.2068591319599589 0  0.4369874246106979 0.20678932647129 0  0.4419242220112007 0.2067226924798619 0  0.4468610479752557 0.2066605699125047 0  0.4517973726095021 0.2066017618611282 0  0.4567334142186685 0.2065469358403298 0  0.4616704099834415 0.206496057520162 0  0.4666069039815534 0.2064485107325779 0  0.4715433268795106 0.2064049078243847 0  0.4764807201420477 0.2063650296533123 0  0.4814179054454432 0.2063282381110549 0  0.4863551164144241 0.2062950581425868 0  0.4912932497475496 0.2062650094791001 0  0.4962313018310808 0.2062376667492777 0  0.5011694679801802 0.2062134108726955 0  0.5061084923295819 0.2061918204554939 0  0.5110475408376651 0.2061724459225882 0  0.5159867977813333 0.2061555978067082 0  0.5209268365703822 0.206140841776491 0  0.5258668857656656 0.2061278384154033 0  0.5308072274212099 0.2061167204708045 0  0.5357480769196314 0.2061071488045178 0  0.5406894282006153 0.206098750176072 0  0.5456312227798055 0.2060917518297522 0  0.5505731949590867 0.2060859078232792 0  0.5555153098837902 0.2060802675038382 0  0.5604578883726202 0.206075781426293 0  0.565400492120555 0.2060717323634609 0  0.5703435127409062 0.2060680551431992 0  0.5752867579583928 0.2060648178594438 0  0.5802301401876814 0.2060616157636998 0  0.5851737275177826 0.2060585706642648 0  0.5901174100337047 0.206055580010082 0  0.5950611579612499 0.2060524815886759 0  0.5950482919934138 0.1860524937240177 0  0.5901044120544583 0.1860555848709328 0  0.5851604754555966 0.1860586030180211 0  0.5802164033392414 0.1860616454275808 0  0.5752721859668908 0.1860648247238009 0  0.5703278070357847 0.1860680759896221 0  0.5653831776674429 0.1860717406916883 0  0.5604381533191135 0.1860758076282692 0  0.5554930650480133 0.1860802882020141 0  0.5505475575578086 0.1860856836938439 0  0.5456017746872186 0.186091607556252 0  0.540655867486315 0.1860987913664881 0  0.5357093805116551 0.1861074907339797 0  0.5307625049924346 0.1861165293771412 0  0.525815575796088 0.1861277197196404 0  0.5208678819604226 0.1861411982147138 0  0.5159197740438107 0.1861552300348933 0  0.5109718344712005 0.1861722705698194 0  0.5060230036434401 0.1861922249242425 0  0.5010737232648004 0.1862128985807193 0  0.4961247940138585 0.1862374041760213 0  0.4911748915655616 0.1862654629067333 0  0.4862245314803904 0.1862943942706836 0  0.4812747307861311 0.186327891786065 0  0.4763239006744601 0.1863655446244645 0  0.471372661798332 0.1864046101794781 0  0.4664217219907498 0.1864481525032922 0  0.4614700004065012 0.1864965094315084 0  0.4565183040092889 0.1865459308195544 0  0.4515676957520685 0.1866007647300988 0  0.446615670301526 0.1866609278179804 0  0.4416634178439072 0.1867221839527083 0  0.4367117220645046 0.1867892032040182 0  0.4317605270495509 0.1868587940482587 0  0.4268093171575946 0.1869326232509406 0  0.4218585683408542 0.1870110498878943 0  0.4169071996399666 0.1870919345338501 0  0.41195649089646 0.1871770562057403 0  0.4070056202657441 0.1872652632986974 0  0.4020549900209511 0.1873569681581086 0  0.3971051036596623 0.187451900273238 0  0.3921562599506638 0.187549266293729 0  0.3872079156721664 0.1876495890194012 0  0.3822591319594372 0.1877519125435608 0  0.3773118503001929 0.187856486142373 0  0.3723647143442583 0.1879632153098336 0  0.3674186847680007 0.1880710692192159 0  0.3624731923972995 0.188180105165918 0  0.3575286364959745 0.1882898717150667 0  0.3525848352263898 0.1884000879563289 0  0.3476418375767774 0.1885105366414911 0  0.342699663923516 0.1886202716134951 0  0.3377588927165273 0.1887293196217888 0  0.332818374133551 0.1888370072220015 0  0.3278791786858268 0.1889420858176731 0  0.3229408217947268 0.1890463860798411 0  0.3180031679817485 0.1891470847082009 0  0.3130679153336193 0.189244850781129 0  0.3081320465397608 0.189339180532635 0  0.3031977292125053 0.1894281079325887 0  0.2982638431302109 0.1895137129030404 0  0.2933308049737808 0.1895932172280771 0  0.2884006072035973 0.1896684166779446 0  0.2834690564334125 0.1897366806304889 0  0.2785412248251252 0.1897986389262559 0  0.2736124767888305 0.1898513774127994 0  0.2686874164988573 0.1898965230503005 0  0.2637614985836794 0.1899353006309375 0  0.2588364296467184 0.1899636761128222 0  0.2539127122414173 0.1899800552005124 0  0.5999953040639259 0.1910493491088799 0  0.6000017672112821 0.2010493554303416 0  0.2589760555951621 0.2005299521854876 0  0.5431447291376504 0.1960936874369588 0  0.5682382500853168 0.1960395019702164 0  0.2774593726402158 0.2006161736553816 0  0.5138474139824488 0.1960617974299192 0  0.5286790498887968 0.1960213203805559 0  0.294499607636667 0.198875921533635 0  0.5827762691952869 0.1956028621715774 0  0.3104107031707293 0.1992744614176022 0  0.337013524478423 0.1995806764275094 0  0.4990156294050935 0.1961219420029308 0  0.3552761627572663 0.1983438664249638 0  0.4841837146316764 0.1962066495581276 0  0.3707316356949631 0.1980150100130677 0  0.3898820756262702 0.197595709407994 0  0.4689788364341065 0.1959627042707926 0  0.4541541743749693 0.1965688741614556 0  0.4043494926564917 0.1974108069170757 0  0.4195459975409915 0.1970459982852202 0  0.4386975753887661 0.1967438448015596 0  0.3202448425639832 0.1991178808609136 0  0.5584037811486797 0.1960677072544689 0  0.4280594427637062 0.1967601704840608 0  0.3467642318441805 0.1986855688768323 0  0.3813696461901229 0.1979230699916961 0  0.2860681119119863 0.1997508412211513 0  0.591119756519751 0.1942997895967121 0  0.2680013547854226 0.2015909420340881 0  0.4615927363622388 0.1987414385681545 0  0.4912474751951709 0.1985114956759539 0  0.5060754910146897 0.1984389594500954 0  0.3972548302148993 0.1951977678052284 0  0.4764199187274563 0.1986109072314864 0  0.5209041188407353 0.1983887046191794 0  0.4467659566107383 0.1989058532312589 0  0.5357333916895823 0.1983557832050668 0  0.4120908808427839 0.1949224991767232 0  0.3626427299966835 0.195928243518004 0  0.3033323079062045 0.197183029591478 0  0.5752777444280263 0.1938140795873543 0  0.5504544996311995 0.1932131116679063 0  0.3282485072561754 0.2018132002570359 0  0.5484216827471277 0.1999275300708189 0  0.330151060853782 0.1950581665948822 0  0.5379121310050988 0.1922270083155874 0  0.5230767644016134 0.192257780043061 0  0.5082401567147901 0.1923051849878336 0  0.5774729168335415 0.199937922069809 0  0.301245410418257 0.2033456088054947 0  0.4785631290737505 0.1924694191080916 0  0.4934022504187964 0.1923741389811103 0  0.395182399137504 0.201366047862264 0  0.3605852861048994 0.2021016098795778 0  0.459339999973745 0.192638776341004 0  0.448882043246038 0.1927543927267314 0  0.4100072135454828 0.2010867073394724 0  0.2557776812207289 0.1960751066287698 0  0.2550216568511149 0.2034340612054596 0  0.434852220242026 0.2005868078353954 0  0.3745501891120225 0.1941427857246162 0  0.3405360611478867 0.1947183377026344 0  0.2812531784740089 0.1958203512232727 0  0.291212202628483 0.1957157896109517 0  0.4247274090285084 0.2009182257978238 0  0.3500707238681616 0.1945057295292861 0  0.3846817099800373 0.1937480481014584 0  0.3165559479866089 0.195341290462518 0  0.5621570839365092 0.1998552786996745 0  0.5624361331823372 0.1921496105678369 0  0.3163115345078013 0.2030566355043027 0  0.2710528580826683 0.1958553825665793 0  0.5873031122524658 0.2007800088263317 0  0.4345995771681699 0.1922804747444685 0  0.4242600962825521 0.192845422855278 0  0.3403547495070412 0.2034725231337205 0  0.280924373665189 0.2045518158233151 0  0.2914769955852286 0.2044112578328764 0  0.374861303438636 0.2024481645753168 0  0.3500294448310369 0.2036385630554257 0  0.3846280601765326 0.2028819372667938 0  0.2647911531030908 0.1961463302097764 0  0.5943259173554181 0.2000944571931758 0  0.5320861002510086 0.1917569814413731 0  0.5172498718312378 0.1917937809207341 0  0.3070680574665684 0.2037129264612315 0  0.5024121693996789 0.1918491153585523 0  0.5716622797104711 0.2004136590186663 0  0.4875730360473831 0.1919279019101563 0  0.4727761264055761 0.1920300092324453 0  0.3664186272683663 0.2024652422360604 0  
[...]
<PointData  Vectors="d"> 
<DataArray  type="Float64"  Name="d"  NumberOfComponents="3" format="ascii">-7.8860905190179560e-06 -3.9506445511197363e-03 0.0000000000000000e+00  4.9536333265556217e-06 -3.9506265501487586e-03 0.0000000000000000e+00  0.0000000000000000e+00 0.0000000000000000e+00 0.0000000000000000e+00  0.0000000000000000e+00 0.0000000000000000e+00 0.0000000000000000e+00  -1.4684161359153182e-06 -3.9506568994280454e-03 0.0000000000000000e+00  0.0000000000000000e+00 0.0000000000000000e+00 0.0000000000000000e+00  0.0000000000000000e+00 0.0000000000000000e+00 0.0000000000000000e+00  0.0000000000000000e+00 0.0000000000000000e+00 0.0000000000000000e+00  0.0000000000000000e+00 0.0000000000000000e+00 0.0000000000000000e+00  2.0450909240898626e-05 -1.9003408201376845e-05 0.0000000000000000e+00  4.1472310935954934e-05 -3.9100425563960233e-05 0.0000000000000000e+00  6.1671972683970111e-05 -6.4034675931707365e-05 0.0000000000000000e+00  8.0015601855559272e-05 -1.0303174238967424e-04 0.0000000000000000e+00  9.6540990844844088e-05 -1.4893109682610552e-04 0.0000000000000000e+00  1.1298601342461325e-04 -2.0480703856989651e-04 0.0000000000000000e+00  1.2715827614207556e-04 -2.6515747003533685e-04 0.0000000000000000e+00  1.3922122421429020e-04 -3.3373913537690787e-04 0.0000000000000000e+00  1.5073274179278572e-04 -4.0825861126967707e-04 0.0000000000000000e+00  1.6080063339384760e-04 -4.8833799324764042e-04 0.0000000000000000e+00  1.7076358731268169e-04 -5.7525308345234786e-04 0.0000000000000000e+00  1.8007420369603751e-04 -6.6302022004196539e-04 0.0000000000000000e+00  1.8704308128549650e-04 -7.5782496342818926e-04 0.0000000000000000e+00  1.9468159960045613e-04 -8.5560870702048577e-04 0.0000000000000000e+00  1.9993667154228847e-04 -9.5623022919232828e-04 0.0000000000000000e+00  2.0471842973545206e-04 -1.0600630207028556e-03 0.0000000000000000e+00  2.0840356353757323e-04 -1.1656247070098746e-03 0.0000000000000000e+00  2.1114575951663040e-04 -1.2736627317570099e-03 0.0000000000000000e+00  2.1293948676439191e-04 -1.3821297704577091e-03 0.0000000000000000e+00  2.1393826323130622e-04 -1.4918204335982283e-03 0.0000000000000000e+00  2.1415828738974792e-04 -1.6019958033162125e-03 0.0000000000000000e+00  2.1367673941428077e-04 -1.7120349061732708e-03 0.0000000000000000e+00  2.1227375830689963e-04 -1.8214083135121282e-03 0.0000000000000000e+00  2.1025436185336698e-04 -1.9303838193684144e-03 0.0000000000000000e+00  2.0758275863295915e-04 -2.0380444570838080e-03 0.0000000000000000e+00  2.0454898042603518e-04 -2.1443843550024793e-03 0.0000000000000000e+00  2.0080341354154424e-04 -2.2487828949150448e-03 0.0000000000000000e+00  1.9664843452251029e-04 -2.3513724348687179e-03 0.0000000000000000e+00  1.9228705750382977e-04 -2.4516257918226719e-03 0.0000000000000000e+00  1.8675957950337112e-04 -2.5479211906437402e-03 0.0000000000000000e+00  1.8075864678082697e-04 -2.6436427993250964e-03 0.0000000000000000e+00  1.7517226391155165e-04 -2.7349459696156815e-03 0.0000000000000000e+00  1.6869543820013144e-04 -2.8220931826323085e-03 0.0000000000000000e+00  1.6188400451728089e-04 -2.9081337316714940e-03 0.0000000000000000e+00  1.5555974605484054e-04 -2.9888711764022879e-03 0.0000000000000000e+00  1.4785922619998493e-04 -3.0669211153496498e-03 0.0000000000000000e+00  1.4118372703289417e-04 -3.1408680400410918e-03 0.0000000000000000e+00  1.3301289702069381e-04 -3.2106735287099758e-03 0.0000000000000000e+00  1.2600459186787931e-04 -3.2773075201380977e-03 0.0000000000000000e+00  1.1902485025894892e-04 -3.3394300874952424e-03 0.0000000000000000e+00  1.1154377885760325e-04 -3.3982381388717414e-03 0.0000000000000000e+00  1.0377968238204464e-04 -3.4530641596702519e-03 0.0000000000000000e+00  9.6969741525541422e-05 -3.5039424798380464e-03 0.0000000000000000e+00  8.9658033986810343e-05 -3.5514892674220872e-03 0.0000000000000000e+00  8.2275226310805078e-05 -3.5950921756152643e-03 0.0000000000000000e+00  7.5862783180947883e-05 -3.6349703466876963e-03 0.0000000000000000e+00  6.9242380929762328e-05 -3.6717618889450599e-03 0.0000000000000000e+00  6.2647644248110302e-05 -3.7049418574131520e-03 0.0000000000000000e+00  5.6975271742967134e-05 -3.7349905208999262e-03 0.0000000000000000e+00  5.1221649619739271e-05 -3.7623332507222473e-03 0.0000000000000000e+00  4.5582093090608191e-05 -3.7865891273045197e-03 0.0000000000000000e+00  4.0800736832576191e-05 -3.8081795445060666e-03 0.0000000000000000e+00  3.6043539277815146e-05 -3.8275540774118429e-03 0.0000000000000000e+00  3.1494777329673035e-05 -3.8444021932917561e-03 0.0000000000000000e+00  2.7727860740679060e-05 -3.8591582235089775e-03 0.0000000000000000e+00  2.3971350365553659e-05 -3.8721615845966938e-03 0.0000000000000000e+00  2.0507300270872005e-05 -3.8832795291955198e-03 0.0000000000000000e+00  1.7551093032796390e-05 -3.8928511954822065e-03 0.0000000000000000e+00  1.5096668378676035e-05 -3.9012498239279474e-03 0.0000000000000000e+00  1.3085541952487584e-05 -3.9082481702477469e-03 0.0000000000000000e+00  1.1252015595950782e-05 -3.9140921767207718e-03 0.0000000000000000e+00  9.5612346445421679e-06 -3.9197324961617536e-03 0.0000000000000000e+00  8.3340178317568741e-06 -3.9242185737069987e-03 0.0000000000000000e+00  7.1320601068729358e-06 -3.9282676365390975e-03 0.0000000000000000e+00  6.3469747945895445e-06 -3.9319448568007655e-03 0.0000000000000000e+00  5.7864866469113622e-06 -3.9351821405561784e-03 0.0000000000000000e+00  5.3630102980135542e-06 -3.9383842363002264e-03 0.0000000000000000e+00  5.1446347485624800e-06 -3.9414293357351573e-03 0.0000000000000000e+00  5.0214450238631878e-06 -3.9444199899180644e-03 0.0000000000000000e+00  4.9636669095310640e-06 -3.9475184113241342e-03 0.0000000000000000e+00  -7.9023009693693675e-06 -3.9475062759823211e-03 0.0000000000000000e+00  -7.9765342997487668e-06 -3.9444151290672627e-03 0.0000000000000000e+00  -8.1074275228011714e-06 -3.9413969819789008e-03 0.0000000000000000e+00  -8.3738382312347328e-06 -3.9383545724192412e-03 0.0000000000000000e+00  -8.7855049605797587e-06 -3.9351752761991191e-03 0.0000000000000000e+00  -9.3587304462403121e-06 -3.9319240103779223e-03 0.0000000000000000e+00  -1.0182393175033778e-05 -3.9282593083116626e-03 0.0000000000000000e+00  -1.1401035875364994e-05 -3.9241923717308284e-03 0.0000000000000000e+00  -1.2683601344705709e-05 -3.9197117979859518e-03 0.0000000000000000e+00  -1.4385385894894669e-05 -3.9143163061560581e-03 0.0000000000000000e+00  -1.6362550885537484e-05 -3.9083924437480185e-03 0.0000000000000000e+00  -1.8464046190016582e-05 -3.9012086335119267e-03 0.0000000000000000e+00  -2.1145315241018221e-05 -3.8925092660203262e-03 0.0000000000000000e+00  -2.4215128828383302e-05 -3.8834706228588790e-03 0.0000000000000000e+00  -2.7338619574860517e-05 -3.8722802803596032e-03 0.0000000000000000e+00  -3.1226749601923342e-05 -3.8588017852862378e-03 0.0000000000000000e+00  -3.5528960611063787e-05 -3.8447699651067485e-03 0.0000000000000000e+00  -3.9662827622067972e-05 -3.8277294301806053e-03 0.0000000000000000e+00  -4.4687949777578106e-05 -3.8077750757575459e-03 0.0000000000000000e+00  -5.0162622780224748e-05 -3.7871014192807340e-03 0.0000000000000000e+00  -5.5286168113466099e-05 -3.7625958239786783e-03 0.0000000000000000e+00  -6.1382910791503106e-05 -3.7345370932667351e-03 0.0000000000000000e+00  -6.7937290343973348e-05 -3.7056057293164248e-03 0.0000000000000000e+00  -7.3932278973492036e-05 -3.6721082139350224e-03 0.0000000000000000e+00  -8.0956685036555708e-05 -3.6344553755355163e-03 0.0000000000000000e+00  -8.8389855536250076e-05 -3.5953898205219074e-03 0.0000000000000000e+00  -9.5523957505700419e-05 -3.5518474967077864e-03 0.0000000000000000e+00  -1.0343983613375266e-04 -3.5034905684916315e-03 0.0000000000000000e+00  -1.1133052772146201e-04 -3.4540691804456100e-03 0.0000000000000000e+00  -1.1813307931237348e-04 -3.3992352699011769e-03 0.0000000000000000e+00  -1.2635282424557889e-04 -3.3390721820195893e-03 0.0000000000000000e+00  -1.3479957623931157e-04 -3.2778160472916834e-03 0.0000000000000000e+00  -1.4268965002508209e-04 -3.2107967959817772e-03 0.0000000000000000e+00  -1.5007895936221190e-04 -3.1412059517412971e-03 0.0000000000000000e+00  -1.5748314569202982e-04 -3.0673767490593962e-03 0.0000000000000000e+00  -1.6442625679402687e-04 -2.9889501121057012e-03 0.0000000000000000e+00  -1.7198925203905764e-04 -2.9080654661498536e-03 0.0000000000000000e+00  -1.7889228989937715e-04 -2.8229437942596772e-03 0.0000000000000000e+00  -1.8595721495544284e-04 -2.7347367013025531e-03 0.0000000000000000e+00  -1.9278175409670058e-04 -2.6430318418914339e-03 0.0000000000000000e+00  -1.9886240972779106e-04 -2.5480997267620011e-03 0.0000000000000000e+00  -2.0390041309094754e-04 -2.4507337062709619e-03 0.0000000000000000e+00  -2.0843898594180785e-04 -2.3504109805988272e-03 0.0000000000000000e+00  -2.1341699304519549e-04 -2.2480874564392364e-03 0.0000000000000000e+00  -2.1689294663292393e-04 -2.1435138576269535e-03 0.0000000000000000e+00  -2.2022319691903140e-04 -2.0367846901664060e-03 0.0000000000000000e+00  -2.2244706750785466e-04 -1.9289307807841248e-03 0.0000000000000000e+00  -2.2413373256185607e-04 -1.8198948340820392e-03 0.0000000000000000e+00  -2.2488392823631745e-04 -1.7101282849333157e-03 0.0000000000000000e+00  -2.2487949219926676e-04 -1.5999120436711531e-03 0.0000000000000000e+00  -2.2407143615363451e-04 -1.4894633585089453e-03 0.0000000000000000e+00  -2.2243938377602458e-04 -1.3797283865048867e-03 0.0000000000000000e+00  -2.1940488512626674e-04 -1.2706803782111726e-03 0.0000000000000000e+00  -2.1611776246419792e-04 -1.1629927779985322e-03 0.0000000000000000e+00  -2.1150750454837302e-04 -1.0579141823268631e-03 0.0000000000000000e+00  -2.0605868999034531e-04 -9.5361392015892298e-04 0.0000000000000000e+00  -1.9990679731064073e-04 -8.5291529179903772e-04 0.0000000000000000e+00  -1.9135373978184769e-04 -7.5514921887101505e-04 0.0000000000000000e+00  -1.8341682799723625e-04 -6.6081946736501398e-04 0.0000000000000000e+00  -1.7392844961438718e-04 -5.7189206741127259e-04 0.0000000000000000e+00  -1.6400882627041842e-04 -4.8628709695959586e-04 0.0000000000000000e+00  -1.5324127706212292e-04 -4.0678277192295444e-04 0.0000000000000000e+00  -1.3963334159010094e-04 -3.3158332205541927e-04 0.0000000000000000e+00  -1.2737840611696892e-04 -2.6331936951114437e-04 0.0000000000000000e+00  -1.1140430874642256e-04 -2.0136107374406980e-04 0.0000000000000000e+00  -9.6346639393738343e-05 -1.4862258720053502e-04 0.0000000000000000e+00  -7.7601223728654517e-05 -1.0347694969950581e-04 0.0000000000000000e+00  -5.9713433268173904e-05 -6.4699369062513662e-05 0.0000000000000000e+00  -4.0976664590894079e-05 -3.6323887177806260e-05 0.0000000000000000e+00  -2.0888364240622765e-05 -1.9944799487620093e-05 0.0000000000000000e+00  -4.6959360741701685e-06 -3.9506508910984338e-03 0.0000000000000000e+00  1.7672112820405064e-06 -3.9506445696312741e-03 0.0000000000000000e+00  2.6290635128760427e-06 -2.2437157352782099e-05 0.0000000000000000e+00  -1.5052476573250182e-06 -3.9063125630102117e-03 0.0000000000000000e+00  -1.5393914994437040e-06 -3.9309566106823530e-03 0.0000000000000000e+00  7.9799284133285963e-06 -1.7801828681096601e-04 0.0000000000000000e+00  -2.1693944481237593e-06 -3.8405452191726508e-03 0.0000000000000000e+00  -1.9506049413428121e-06 -3.8810222685409916e-03 0.0000000000000000e+00  -1.1287569097581736e-05 -4.1526930690361961e-04 0.0000000000000000e+00  -1.8139432057340182e-06 -3.9401179287574936e-03 0.0000000000000000e+00  -2.1364861962400819e-06 -6.9599716329561689e-04 0.0000000000000000e+00  1.3348936567943703e-05 -1.2487848158873377e-03 0.0000000000000000e+00  -2.5368549524042552e-06 -3.7804006461593679e-03 0.0000000000000000e+00  -5.4548136381128735e-06 -1.6561335750969457e-03 0.0000000000000000e+00  -3.0345115161904738e-06 -3.6956930909572720e-03 0.0000000000000000e+00  -5.7356955920239161e-06 -1.9992276823011671e-03 0.0000000000000000e+00  -6.1818839793119483e-06 -2.4042905920887590e-03 0.0000000000000000e+00  -6.9186151668727297e-06 -3.5789681548768128e-03 0.0000000000000000e+00  -3.5573092273825145e-06 -3.4311258384541947e-03 0.0000000000000000e+00  -3.9987453413652147e-06 -2.6868504338487774e-03 0.0000000000000000e+00  -5.0942029653865570e-06 -2.9540017148855379e-03 0.0000000000000000e+00  -4.4024756850830782e-06 -3.2419175031175992e-03 0.0000000000000000e+00  -2.4324616871098784e-06 -8.9100335372626520e-04 0.0000000000000000e+00  -1.5729594054123562e-06 -3.9234085308887737e-03 0.0000000000000000e+00  -7.2719250071530762e-06 -3.0887343367633057e-03 0.0000000000000000e+00  -1.7627823668552334e-06 -1.4655263026052160e-03 0.0000000000000000e+00  -2.9883757678795293e-06 -2.2280251877558775e-03 0.0000000000000000e+00  -2.2578022355698993e-07 -2.9070334946690470e-04 0.0000000000000000e+00  -2.6246583685021150e-06 -3.9451263381623100e-03 0.0000000000000000e+00  1.2038639559865187e-05 -8.4183612640815686e-05 0.0000000000000000e+00  1.9296119610949861e-05 -3.5089247606457982e-03 0.0000000000000000e+00  1.1200718825578287e-05 -3.7388676528552589e-03 0.0000000000000000e+00  7.7994214914422337e-06 -3.8114038787163984e-03 0.0000000000000000e+00  -4.9135853778093169e-05 -2.5518688659681046e-03 0.0000000000000000e+00  1.5061367966666211e-05 -3.6394560973187556e-03 0.0000000000000000e+00  5.0101306897960182e-06 -3.8616587096389873e-03 0.0000000000000000e+00  2.3933484972726853e-05 -3.3445100975411368e-03 0.0000000000000000e+00  2.8658626975314323e-06 -3.8945801237530342e-03 0.0000000000000000e+00  -4.4502342747815591e-05 -2.8271374944744011e-03 0.0000000000000000e+00  -5.4596132651725030e-05 -1.8213931531879184e-03 0.0000000000000000e+00  -3.9349755691597805e-05 -5.6660707970888251e-04 0.0000000000000000e+00  -3.2270437966159190e-06 -3.9355570837959720e-03 0.0000000000000000e+00  -5.3562878565061359e-06 -3.9153668058604426e-03 0.0000000000000000e+00  5.5734041491269383e-05 -1.0583212692047738e-03 0.0000000000000000e+00  3.7806973815008144e-06 -3.9127914986574258e-03 0.0000000000000000e+00  -8.3666230216772723e-05 -1.1015118356668735e-03 0.0000000000000000e+00  -8.9542187125268637e-06 -3.8981733488235807e-03 0.0000000000000000e+00  -1.2903705351810076e-05 -3.8674016213447074e-03 0.0000000000000000e+00  -1.8094275332078910e-05 -3.8199966765761952e-03 0.0000000000000000e+00  1.3859648321050351e-06 -3.9368962657797078e-03 0.0000000000000000e+00  6.4312153302148825e-05 -5.2920953009897751e-04 0.0000000000000000e+00  -3.2287682660612342e-05 -3.6557625563123589e-03 0.0000000000000000e+00  -2.4583454470711198e-05 -3.7510426832960122e-03 0.0000000000000000e+00  6.8992465741045590e-05 -2.5087704733325693e-03 0.0000000000000000e+00  7.8519372487679059e-05 -1.7732084560173047e-03 0.0000000000000000e+00  -4.2880871969602964e-05 -3.4864053233952894e-03 0.0000000000000000e+00  -5.0539276642501609e-05 -3.3707889376692907e-03 0.0000000000000000e+00  6.2389756860864646e-05 -2.7881109961267045e-03 0.0000000000000000e+00  -8.6187594681879078e-06 -1.0730396959659285e-05 0.0000000000000000e+00  6.9208201750273294e-06 -8.5817936518138797e-06 0.0000000000000000e+00  4.9072595557083047e-05 -3.1869499287600061e-03 0.0000000000000000e+00  -8.6012496387469122e-05 -2.0834565112391292e-03 0.0000000000000000e+00  -8.9775438543760009e-05 -1.3284544913546314e-03 0.0000000000000000e+00  -4.6989644974493728e-05 -2.2644097077745686e-04 0.0000000000000000e+00  -5.6436115506292878e-05 -3.6584325397645914e-04 0.0000000000000000e+00  5.6875446519214778e-05 -3.0349820081305599e-03 0.0000000000000000e+00  -9.1451864751314476e-05 -1.5410626649017402e-03 0.0000000000000000e+00  -8.7105692232054339e-05 -2.2987440927774916e-03 0.0000000000000000e+00  -7.6420551747130558e-05 -8.1816810085200554e-04 0.0000000000000000e+00  2.0828311683508577e-06 -3.9263705602246551e-03 0.0000000000000000e+00  -5.2545196397498639e-06 -3.9265817933007829e-03 0.0000000000000000e+00  7.2030924488425402e-05 -8.1132023816651378e-04 0.0000000000000000e+00  -3.5855338093954886e-05 -1.1426176600450316e-04 0.0000000000000000e+00  1.6746121054137686e-06 -3.9427792767506176e-03 0.0000000000000000e+00  -6.8379476100951703e-05 -3.1846712107828027e-03 0.0000000000000000e+00  -6.9554125246521181e-05 -3.0302752386281990e-03 0.0000000000000000e+00  9.8798423688891193e-05 -1.3215268953717632e-03 0.0000000000000000e+00  5.5880989095606424e-05 -2.2242595795047461e-04 0.0000000000000000e+00  6.9292271356324401e-05 -3.6969387421905277e-04 0.0000000000000000e+00  8.9910828142794993e-05 -2.0866894695385579e-03 0.0000000000000000e+00  1.0779594115024471e-04 -1.5367782632048424e-03 0.0000000000000000e+00  9.9771347302840814e-05 -2.2934040518422273e-03 0.0000000000000000e+00  -2.3333442414416396e-05 -6.2644088861017982e-05 0.0000000000000000e+00  1.1529891285229314e-06 -3.9470851657424540e-03 0.0000000000000000e+00  -1.1160794605950643e-05 -3.8875284637140588e-03 0.0000000000000000e+00  -1.5972097534884756e-05 -3.8507289843512614e-03 0.0000000000000000e+00  7.5731906302635367e-05 -6.3387692602362726e-04 0.0000000000000000e+00  -2.2257412247523465e-05 -3.7953945465341319e-03 0.0000000000000000e+00  1.9761370359863802e-06 -3.9331443686097638e-03 0.0000000000000000e+00  -2.9973647691016474e-05 -3.7166079949267974e-03 0.0000000000000000e+00  -3.9071124050225935e-05 -3.6102376585441433e-03 0.0000000000000000e+00  8.8449615612523923e-05 -1.9022126277996559e-03 0.0000000000000000e+00  -4.4570029969594171e-05 -3.5429934765548532e-03 0.0000000000000000e+00  7.6156415186065426e-05 -2.6215109884284867e-03 0.0000000000000000e+00  -5.9712462115207551e-05 -3.2984395937409464e-03 0.0000000000000000e+00  6.8108097520422069e-05 -2.8890829842624574e-03 0.0000000000000000e+00  -4.3672387128269084e-06 -3.9423103813559235e-03 0.0000000000000000e+00  3.7542348384584595e-06 -3.9191591845891193e-03 0.0000000000000000e+00  -9.3173320229023946e-05 -9.7954397345451495e-04 0.0000000000000000e+00  4.4014551444469321e-05 -1.2256262803733036e-04 0.0000000000000000e+00  2.3788428341795295e-05 -5.0648339118923264e-05 0.0000000000000000e+00  4.6699863561301347e-05 -3.4589902304663126e-03 0.0000000000000000e+00  -8.0569950451922184e-05 -2.9062190393341126e-03 0.0000000000000000e+00  3.6947392986766722e-05 -3.6003457192769835e-03 0.0000000000000000e+00  1.3581053691638117e-05 -3.8471802960367593e-03 0.0000000000000000e+00  2.7450493528175338e-05 -3.7093379114306623e-03 0.0000000000000000e+00  1.9879964165564784e-05 -3.7901712018767004e-03 0.0000000000000000e+00  -7.7558938506997829e-05 -2.6472578500366601e-03 0.0000000000000000e+00  5.4230368536708665e-05 -3.2849449467971959e-03 0.0000000000000000e+00  -1.0157020106166129e-04 -1.9248098604571055e-03 0.0000000000000000e+00  -9.8018006923925540e-05 -2.4567031764175253e-03 0.0000000000000000e+00  6.5407630549362384e-06 -3.9021329681133369e-03 0.0000000000000000e+00  -1.0718712800242106e-04 -1.7145641899921108e-03 0.0000000000000000e+00  7.1616649802906322e-06 -3.8850502219774010e-03 0.0000000000000000e+00  -8.1396051182524464e-05 -6.5111704869910214e-04 0.0000000000000000e+00  -7.6107532296499110e-05 -4.8406762264336821e-04 0.0000000000000000e+00  -4.6404966856397797e-06 -3.9382033649144289e-03 0.0000000000000000e+00  -5.3193382679830944e-06 -3.9323706206246057e-03 0.0000000000000000e+00  1.1601091644429912e-05 -3.8311836258428499e-03 0.0000000000000000e+00  1.6791515185046993e-05 -3.7669772798405526e-03 0.0000000000000000e+00  3.2144214197975948e-05 -3.5563565266641698e-03 0.0000000000000000e+00  8.1443857260125611e-06 -3.8744389914420452e-03 0.0000000000000000e+00  2.2901085655821194e-05 -3.6774068435832014e-03 0.0000000000000000e+00  4.0996894883448992e-05 -3.4034515462425508e-03 0.0000000000000000e+00  -7.4182490615058225e-05 -2.7370456973634790e-03 0.0000000000000000e+00  9.1908239595753504e-05 -9.5965144101175018e-04 0.0000000000000000e+00  -7.0056736545118426e-06 -3.9201087022597801e-03 0.0000000000000000e+00  -8.3795731683095849e-06 -3.9095391991333522e-03 0.0000000000000000e+00  9.3008184052795602e-05 -1.1608686539148541e-03 0.0000000000000000e+00  -4.7581058040701372e-