<?xml version="1.0"?>
<VTKFile type="UnstructuredGrid"  version="0.1"  >
<UnstructuredGrid>
<Piece  NumberOfPoints="439" NumberOfCells="725">
<Points>
<DataArray  type="Float64"  NumberOfComponents="3"  format="ascii">0.6002056139532729 0.1926916742913282 0  0.5999221979921493 0.2125742976507445 0  0.2489897949 0.21 0  0.2489897949 0.19 0  0.6000632585886316 0.2026339499395219 0  0.2496355385699469 0.2060260530378829 0  0.249959460510575 0.2020130349814059 0  0.2499594605105767 0.1979869650186357 0  0.24963553856995 0.1939739469621422 0  0.2539338828561371 0.2100026040789325 0  0.258882357682823 0.2100099907316667 0  0.2638333770893553 0.2100188687221122 0  0.268788154642725 0.2100245967629444 0  0.2737462903927746 0.2100259982720334 0  0.2787078066292868 0.2100213366951121 0  0.2836704463407834 0.2100107968993069 0  0.2886340321588792 0.2099909189073909 0  0.2935997517828233 0.209962228538103 0  0.2985656582872934 0.2099237442325986 0  0.3035334148936901 0.2098713680144966 0  0.3085014385623184 0.2098161609786366 0  0.3134659810473027 0.2097451718946368 0  0.3184332383208843 0.2096657592620591 0  0.3233951017601284 0.2095788372453695 0  0.3283556380362629 0.2094838016512031 0  0.3333127278968485 0.2093848028487442 0  0.3382663475088976 0.2092810605023081 0  0.3432169354659289 0.2091771511181373 0  0.348163377761032 0.2090730220801006 0  0.35310662860172 0.208970396597491 0  0.3580472179384268 0.2088725258167542 0  0.3629835601956737 0.208783742937478 0  0.3679175154427863 0.2086986639943775 0  0.3728508376263026 0.20862753695384 0  0.3777841761935558 0.2085655245313574 0  0.3827160659301037 0.2085177212896787 0  0.3876474352154541 0.2084817999115514 0  0.3925792279355505 0.2084582868117987 0  0.397505017969047 0.2084534335350494 0  0.4024308383750052 0.2084503775841389 0  0.4073570545205208 0.208465833523466 0  0.4122801443797712 0.2084944265609943 0  0.4172033654139704 0.2085268209133312 0  0.4221276684704946 0.2085755864143104 0  0.4270497999262878 0.2086332720093524 0  0.4319755106611964 0.2087008016204524 0  0.4368994312670849 0.2087806542205687 0  0.4418271528537236 0.2088666460182572 0  0.446755592537194 0.2089630107771288 0  0.4516839293246974 0.2090656575381597 0  0.4566125470758969 0.2091759619227039 0  0.4615431926216632 0.2092909552983016 0  0.4664729364012458 0.2094098303128735 0  0.4714019492541936 0.2095338996153592 0  0.4763334063159699 0.2096602911841447 0  0.4812636372660958 0.2097896301959373 0  0.4861931700405056 0.2099233777646692 0  0.4911272557621462 0.2100607104327879 0  0.4960620726323452 0.2102012762413963 0  0.5009989232706525 0.2103466942570085 0  0.5059422948002884 0.2104975128841712 0  0.5108898596790344 0.2106508608963021 0  0.5158430164786671 0.210806994364872 0  0.5208015410535218 0.210965321874798 0  0.5257651580678824 0.2111218670895185 0  0.5307334419716565 0.2112756488551285 0  0.5357042596761875 0.2114239117751461 0  0.5406731436516239 0.2115678623295654 0  0.5456388643991752 0.2116993861840951 0  0.5506042020942724 0.2118163706236827 0  0.5555665381253283 0.2119336190098326 0  0.560516475891198 0.2120301855462981 0  0.5654654991748077 0.2121192141588716 0  0.5704019843781158 0.2122004180515236 0  0.5753319425235494 0.2122663726393184 0  0.5802571467336314 0.2123341575012366 0  0.5851748981783426 0.212393002338106 0  0.5900909610820514 0.2124501809940833 0  0.5950066996296071 0.212511382967931 0  0.5952949655546211 0.1926207752990073 0  0.5903912832992702 0.1925511154129205 0  0.5854914625974401 0.1924844777659437 0  0.5805941560321889 0.1924109127348696 0  0.5756978863593657 0.1923291643316601 0  0.5707971856123685 0.1922425141426864 0  0.5658903529193547 0.1921416919463856 0  0.560981731363882 0.1920291632390771 0  0.5560582314983507 0.191910782593562 0  0.5511279975071801 0.1917794180998918 0  0.5461880387745608 0.1916461910372547 0  0.5412374713137873 0.1915025931156525 0  0.5362848850297635 0.191354003392658 0  0.5313274766027885 0.1912111380380303 0  0.526364058155992 0.1910609721713536 0  0.5214025185666396 0.1909123360786295 0  0.5164394171872362 0.190768713283969 0  0.5114784677489151 0.1906225726308783 0  0.5065206695115401 0.1904813641248239 0  0.5015635175971728 0.1903418228446461 0  0.4966127356051198 0.1902026137456644 0  0.4916626855297523 0.1900685767367435 0  0.4867128133898136 0.1899321703571086 0  0.4817681479793455 0.1897989773239062 0  0.4768202776938815 0.1896715933478109 0  0.4718702338164345 0.1895415960062109 0  0.4669222218044151 0.1894171353441487 0  0.4619690349617149 0.1893006565888335 0  0.4570141052511585 0.1891830679183979 0  0.4520605144646276 0.1890764151205875 0  0.447102923633911 0.1889815159171173 0  0.4421423369758985 0.188888143822026 0  0.4371834022591605 0.1888077322580997 0  0.4322246364663147 0.1887333913980667 0  0.427266037117716 0.1886685374548109 0  0.4223071915181346 0.188614393444218 0  0.4173454519448195 0.1885657031281759 0  0.4123823422877884 0.1885280720482309 0  0.407414964287426 0.1884990614255087 0  0.4024437978721079 0.1884812392461221 0  0.3974699956448081 0.1884764220765155 0  0.3924959833915423 0.1884829049639523 0  0.3875200747119718 0.1885054730862087 0  0.3825396111264249 0.1885392751574661 0  0.3775643518039155 0.1885898751318686 0  0.3725886434906274 0.1886541170804884 0  0.3676196893788739 0.1887282766261464 0  0.3626538021972107 0.1888123933813618 0  0.3576933385705822 0.1889025221245797 0  0.3527363054102337 0.1889985767498013 0  0.3477807251668826 0.1890980390686567 0  0.3428290941778431 0.189199011307816 0  0.3378810878701098 0.1893019685416575 0  0.3329351747345351 0.1894040801031034 0  0.3279941280639979 0.189501415783242 0  0.3230557945467564 0.1895970763020791 0  0.3181205528310192 0.1896837217448316 0  0.3131905700994026 0.1897621323679138 0  0.3082582409432126 0.1898314746259839 0  0.3033277559781445 0.1898885297111989 0  0.2983959147066178 0.1899381311736459 0  0.2934635642326017 0.1899759779864385 0  0.2885334416690702 0.1900054037259464 0  0.2835986352579922 0.1900257505244068 0  0.278664174199549 0.1900362085721908 0  0.2737248693995761 0.1900399785629749 0  0.2687836856737802 0.1900378596065648 0  0.2638392951115568 0.1900330693474552 0  0.2588923142732985 0.1900253405392931 0  0.2539425469621795 0.1900139951566367 0  0.6001342269091676 0.1976623713656545 0  0.5999910749969687 0.2076041763007456 0  0.2589819316806472 0.2005701361847057 0  0.5434283242746314 0.2016435172576473 0  0.5685080069824554 0.2021914403960477 0  0.2774835257770197 0.2008324366753587 0  0.5140257034267923 0.2006349722429957 0  0.5289126202801742 0.2011077093186068 0  0.2945549538703263 0.1992658435431336 0  0.5829651122008642 0.2019674417066855 0  0.3104793391157682 0.199777300045799 0  0.3371093439839578 0.2001425383239499 0  0.4991704900921728 0.2001806832830598 0  0.355395625139233 0.1989298025537244 0  0.4843471651612752 0.1997588250832129 0  0.3708704193540704 0.1986662733498938 0  0.3900626177778347 0.1984643664722018 0  0.4691724608426937 0.1989970265428078 0  0.4543431490083603 0.1991069553792663 0  0.4045509457422468 0.198552003306578 0  0.4197492508825766 0.1985525343911765 0  0.4388910656411998 0.1987904641021187 0  0.320322697200352 0.1996589157238768 0  0.5587027706664273 0.2020250551838855 0  0.4282611592188629 0.1984974500674846 0  0.3468744077816056 0.1992562221827664 0  0.3815294294940961 0.1986728743789578 0  0.2861080017890749 0.2000587131692194 0  0.5912678743735308 0.200774679438513 0  0.2680098056335706 0.2017085595170187 0  0.461707621690873 0.2015267905481291 0  0.4913281191778252 0.2023042788558293 0  0.5061607037276064 0.2027422038487376 0  0.3974890056910486 0.1961990239234978 0  0.4765179979581275 0.201899293977377 0  0.5210310590894369 0.2032108620668503 0  0.4468915326558019 0.2012023042217998 0  0.5359242931007904 0.2036798649199558 0  0.4123465631100399 0.1962480403135815 0  0.3627833222237603 0.1965416374651867 0  0.3034077980355155 0.1976435334785014 0  0.5755539644986535 0.2000826163655763 0  0.5508311597286732 0.1989615064449173 0  0.3283263258811577 0.2023656900073549 0  0.5486136882886516 0.2056303754277549 0  0.3302509406912653 0.1956181356862967 0  0.5382961689132483 0.1975981362620302 0  0.523409902773167 0.1971392140925819 0  0.5085307230291977 0.1966783103532222 0  0.5776165586225916 0.2062156691855911 0  0.3012761811153991 0.203786256427009 0  0.4788563875151127 0.1958332647214514 0  0.4936825695928113 0.1962418485928303 0  0.3953075277560913 0.2023205930429021 0  0.360689500110181 0.202697642587474 0  0.4596470528351762 0.1953522191399371 0  0.4491870732985469 0.1951258586827596 0  0.4101268784331694 0.2023504039282937 0  0.2557920818355758 0.1960991703518482 0  0.2550185821498847 0.203450379817645 0  0.4349432745948215 0.2025133818487821 0  0.3747310958712502 0.194831415929682 0  0.3406492113896418 0.1952872827578394 0  0.2813224393314535 0.1960811175105029 0  0.2912910863363863 0.1960772166842629 0  0.4248264412188804 0.2025567643142062 0  0.3501981906023558 0.1950863276521961 0  0.3849005546962055 0.1945464041311193 0  0.3166479637188388 0.1958728518675923 0  0.5623613633016845 0.2058836451859812 0  0.5628183973697161 0.1981864796173336 0  0.3163676639816045 0.2035812884479425 0  0.2711073131138027 0.1960092470710423 0  0.5873732698494137 0.2071731860256868 0  0.43491810924691 0.194216588752352 0  0.4245643730668312 0.1944889601662614 0  0.3404448636742488 0.2040333641164937 0  0.2809173125815841 0.2048025172439355 0  0.2914835002460583 0.2047685123532867 0  0.3749666184721376 0.2031278739623137 0  0.350126098888758 0.2042092185804824 0  0.3847308519373484 0.2036706489012189 0  0.2648293044230161 0.1962409815611038 0  0.594362938827822 0.2065786542257751 0  0.5324665225998537 0.1969370448204011 0  0.517578999564357 0.1964733590728084 0  0.3071055718270765 0.2041920683418916 0  0.5027110480870937 0.1960223437210798 0  0.5718262667038947 0.2066050375826644 0  0.487873378668571 0.1955981561581857 0  0.4730914488477667 0.1951977413845796 0  0.3665226763534394 0.203086858378317
[...]
<PointData  Vectors="d"> 
<DataArray  type="Float64"  Name="d"  NumberOfComponents="3" format="ascii">2.0561395327302337e-04 2.6916742913282317e-03 0.0000000000000000e+00  -7.7802007850648691e-05 2.5742976507445053e-03 0.0000000000000000e+00  0.0000000000000000e+00 0.0000000000000000e+00 0.0000000000000000e+00  0.0000000000000000e+00 0.0000000000000000e+00 0.0000000000000000e+00  6.3258588631574483e-05 2.6339499395217920e-03 0.0000000000000000e+00  0.0000000000000000e+00 0.0000000000000000e+00 0.0000000000000000e+00  0.0000000000000000e+00 0.0000000000000000e+00 0.0000000000000000e+00  0.0000000000000000e+00 0.0000000000000000e+00 0.0000000000000000e+00  0.0000000000000000e+00 0.0000000000000000e+00 0.0000000000000000e+00  2.8225050793914684e-07 2.6040789325880708e-06 0.0000000000000000e+00  4.9513715687720899e-06 9.9907316666625282e-06 0.0000000000000000e+00  1.2165072463230831e-05 1.8868722112295215e-05 0.0000000000000000e+00  2.3136920195093399e-05 2.4596762944397586e-05 0.0000000000000000e+00  3.7466964617658160e-05 2.5998272033385975e-05 0.0000000000000000e+00  5.5177495511422222e-05 2.1336695112116667e-05 0.0000000000000000e+00  7.4011501389746785e-05 1.0796899306997887e-05 0.0000000000000000e+00  9.3791613862646692e-05 -9.0810926091144417e-06 0.0000000000000000e+00  1.1570553217106135e-04 -3.7771461896907951e-05 0.0000000000000000e+00  1.3780633102253274e-04 -7.6255767401434100e-05 0.0000000000000000e+00  1.6175723179035547e-04 -1.2863198550349680e-04 0.0000000000000000e+00  1.8597519480040522e-04 -1.8383902136331814e-04 0.0000000000000000e+00  2.0671197416616318e-04 -2.5482810536325043e-04 0.0000000000000000e+00  2.3016354212939869e-04 -3.3424073794082116e-04 0.0000000000000000e+00  2.4822127575517973e-04 -4.2116275463042389e-04 0.0000000000000000e+00  2.6495184627134177e-04 -5.1619834879694981e-04 0.0000000000000000e+00  2.7823600122771960e-04 -6.1519715125579017e-04 0.0000000000000000e+00  2.8804990766904617e-04 -7.1893949769189511e-04 0.0000000000000000e+00  2.9483215907124600e-04 -8.2284888186264936e-04 0.0000000000000000e+00  2.9746874855596467e-04 -9.2697791989943652e-04 0.0000000000000000e+00  2.9691388362550430e-04 -1.0296034025090261e-03 0.0000000000000000e+00  2.9369751471420186e-04 -1.1274741832457856e-03 0.0000000000000000e+00  2.8623406634283185e-04 -1.2162570625219237e-03 0.0000000000000000e+00  2.7638360783668712e-04 -1.3013360056224352e-03 0.0000000000000000e+00  2.6590008572384850e-04 -1.3724630461599062e-03 0.0000000000000000e+00  2.5543294736814708e-04 -1.4344754686426244e-03 0.0000000000000000e+00  2.4351697829147915e-04 -1.4822787103213565e-03 0.0000000000000000e+00  2.3108055802029213e-04 -1.5182000884485167e-03 0.0000000000000000e+00  2.1906757248734739e-04 -1.5417131882013110e-03 0.0000000000000000e+00  2.0105190037649740e-04 -1.5465664649505757e-03 0.0000000000000000e+00  1.8306660070676242e-04 -1.5496224158612654e-03 0.0000000000000000e+00  1.6547704060999828e-04 -1.5341664765339126e-03 0.0000000000000000e+00  1.4476119424019959e-04 -1.5055734390057524e-03 0.0000000000000000e+00  1.2417652281854349e-04 -1.4731790866687325e-03 0.0000000000000000e+00  1.0467387373105321e-04 -1.4244135856896435e-03 0.0000000000000000e+00  8.2999623895973671e-05 -1.3667279906475712e-03 0.0000000000000000e+00  6.4904653171402545e-05 -1.2991983795475658e-03 0.0000000000000000e+00  4.5019553407564671e-05 -1.2193457794312452e-03 0.0000000000000000e+00  2.8935434390758586e-05 -1.1333539817427692e-03 0.0000000000000000e+00  1.3569412197218222e-05 -1.0369892228710787e-03 0.0000000000000000e+00  -1.8995059472074573e-06 -9.3434246184030082e-04 0.0000000000000000e+00  -1.7087460389547070e-05 -8.2403807729626555e-04 0.0000000000000000e+00  -3.0247620252863112e-05 -7.0904470169837045e-04 0.0000000000000000e+00  -4.4309546320876232e-05 -5.9016968712654781e-04 0.0000000000000000e+00  -5.9102399006221751e-05 -4.6610038464071826e-04 0.0000000000000000e+00  -7.1451042896893710e-05 -3.3970881585529330e-04 0.0000000000000000e+00  -8.5025798417605975e-05 -2.1036980406269288e-04 0.0000000000000000e+00  -9.9298729670572211e-05 -7.6622235330804756e-05 0.0000000000000000e+00  -1.0901871366023043e-04 6.0710432787871431e-05 0.0000000000000000e+00  -1.1800754911581472e-04 2.0127624139638505e-04 0.0000000000000000e+00  -1.2496261643686038e-04 3.4669425700852030e-04 0.0000000000000000e+00  -1.2539679246078523e-04 4.9751288417127599e-04 0.0000000000000000e+00  -1.2163761935313295e-04 6.5086089630213913e-04 0.0000000000000000e+00  -1.1228652533691145e-04 8.0699436487197064e-04 0.0000000000000000e+00  -9.7567656119637255e-05 9.6532187479795250e-04 0.0000000000000000e+00  -7.7756347418293711e-05 1.1218670895186053e-03 0.0000000000000000e+00  -5.3278149282767517e-05 1.2756488551284807e-03 0.0000000000000000e+00  -2.6266150411036588e-05 1.4239117751460560e-03 0.0000000000000000e+00  -1.1878806127413947e-06 1.5678623295653834e-03 0.0000000000000000e+00  2.0727161322140481e-05 1.6993861840951458e-03 0.0000000000000000e+00  4.2259150781599110e-05 1.8163706236826473e-03 0.0000000000000000e+00  6.0789476182473102e-05 1.9336190098326984e-03 0.0000000000000000e+00  6.6921536409459702e-05 2.0301855462980275e-03 0.0000000000000000e+00  7.2139114359235428e-05 2.1192141588715872e-03 0.0000000000000000e+00  6.4818612004433149e-05 2.2004180515236209e-03 0.0000000000000000e+00  5.0971051803335002e-05 2.2663726393183791e-03 0.0000000000000000e+00  3.2369556247735503e-05 2.3341575012365912e-03 0.0000000000000000e+00  6.3152953085369493e-06 2.3930023381059820e-03 0.0000000000000000e+00  -2.1427506629169101e-05 2.4501809940832941e-03 0.0000000000000000e+00  -4.9494664733637191e-05 2.5113829679308899e-03 0.0000000000000000e+00  2.3877126023795240e-04 2.6207752990073528e-03 0.0000000000000000e+00  2.7889471051225175e-04 2.5511154129204605e-03 0.0000000000000000e+00  3.2287971432079239e-04 2.4844777659436472e-03 0.0000000000000000e+00  3.6937885471621129e-04 2.4109127348696706e-03 0.0000000000000000e+00  4.1691488751425057e-04 2.3291643316601177e-03 0.0000000000000000e+00  4.6001984613710330e-04 2.2425141426863173e-03 0.0000000000000000e+00  4.9699285873646120e-04 2.1416919463855882e-03 0.0000000000000000e+00  5.3217700889336716e-04 2.0291632390771509e-03 0.0000000000000000e+00  5.5248284899278718e-04 1.9107825935619344e-03 0.0000000000000000e+00  5.6605456347643302e-04 1.7794180998918158e-03 0.0000000000000000e+00  5.6990153645651218e-04 1.6461910372548370e-03 0.0000000000000000e+00  5.6313978128257785e-04 1.5025931156525054e-03 0.0000000000000000e+00  5.5435920286737279e-04 1.3540033926578811e-03 0.0000000000000000e+00  5.4075648152552679e-04 1.2111380380303118e-03 0.0000000000000000e+00  5.2114374032926085e-04 1.0609721713536271e-03 0.0000000000000000e+00  5.0340985661514917e-04 9.1233607862959841e-04 0.0000000000000000e+00  4.8411418281436386e-04 7.6871328396890934e-04 0.0000000000000000e+00  4.6697045009260347e-04 6.2257263087837824e-04 0.0000000000000000e+00  4.5297791832260548e-04 4.8136412482389565e-04 0.0000000000000000e+00  4.3963170959236751e-04 3.4182284464613839e-04 0.0000000000000000e+00  4.3265542314776070e-04 2.0261374566438392e-04 0.0000000000000000e+00  4.2641105339923286e-04 6.8576736743495057e-05 0.0000000000000000e+00  4.2034461907937388e-04 -6.7829642891321928e-05 0.0000000000000000e+00  4.1948491424098107e-04 -2.0102267609385248e-04 0.0000000000000000e+00  4.1542033438485428e-04 -3.2840665218906154e-04 0.0000000000000000e+00  4.0918216256608008e-04 -4.5840399378916383e-04 0.0000000000000000e+00  4.0497585615965859e-04 -5.8286465585128907e-04 0.0000000000000000e+00  3.9559471907989419e-04 -6.9934341116635189e-04 0.0000000000000000e+00  3.8447071414828834e-04 -8.1693208160210900e-04 0.0000000000000000e+00  3.7468563324686346e-04 -9.2358487941243282e-04 0.0000000000000000e+00  3.6090050813926687e-04 -1.0184840828827005e-03 0.0000000000000000e+00  3.4411955575186417e-04 -1.1118561779739806e-03 0.0000000000000000e+00  3.2899054463076782e-04 -1.1922677419003013e-03 0.0000000000000000e+00  3.1403045740167966e-04 -1.2666086019332409e-03 0.0000000000000000e+00  2.9923681442948488e-04 -1.3314625451890647e-03 0.0000000000000000e+00  2.8419692048628356e-04 -1.3856065557819874e-03 0.0000000000000000e+00  2.6626305281378978e-04 -1.4342968718240089e-03 0.0000000000000000e+00  2.4695910142903861e-04 -1.4719279517692162e-03 0.0000000000000000e+00  2.2338680672641181e-04 -1.5009385744912708e-03 0.0000000000000000e+00  1.9602609706015247e-04 -1.5187607538778949e-03 0.0000000000000000e+00  1.6602957541794408e-04 -1.5235779234845446e-03 0.0000000000000000e+00  1.3582302778752890e-04 -1.5170950360476436e-03 0.0000000000000000e+00  1.0372005386352645e-04 -1.4945269137914274e-03 0.0000000000000000e+00  6.7062173942659663e-05 -1.4607248425338654e-03 0.0000000000000000e+00  3.5608557089632077e-05 -1.4101248681314209e-03 0.0000000000000000e+00  3.7059494501627743e-06 -1.3458829195115976e-03 0.0000000000000000e+00  -2.1442456634603430e-05 -1.2717233738535330e-03 0.0000000000000000e+00  -4.3523932650869013e-05 -1.1876066186382020e-03 0.0000000000000000e+00  -6.0181853628554932e-05 -1.0974778754202533e-03 0.0000000000000000e+00  -7.3409308355326598e-05 -1.0014232501988159e-03 0.0000000000000000e+00  -8.5183846048412536e-05 -9.0196093134331859e-04 0.0000000000000000e+00  -9.3009129448699308e-05 -8.0098869218399912e-04 0.0000000000000000e+00  -9.7209731543869180e-05 -6.9803145834253081e-04 0.0000000000000000e+00  -9.9317161480065672e-05 -5.9591989689648198e-04 0.0000000000000000e+00  -9.6558126376939437e-05 -4.9858421675802044e-04 0.0000000000000000e+00  -9.1085937960838650e-05 -4.0292369792090175e-04 0.0000000000000000e+00  -8.2521948039782601e-05 -3.1627825516833294e-04 0.0000000000000000e+00  -6.8698973998547802e-05 -2.3786763208636345e-04 0.0000000000000000e+00  -5.7222424545575888e-05 -1.6852537401610735e-04 0.0000000000000000e+00  -4.3901683975134524e-05 -1.1147028880108179e-04 0.0000000000000000e+00  -3.1937249863434341e-05 -6.1868826354126915e-05 0.0000000000000000e+00  -2.0482018241357973e-05 -2.4022013561424917e-05 0.0000000000000000e+00  -6.7988761172082836e-06 5.4037259464167761e-06 0.0000000000000000e+00  2.2004184624967768e-06 2.5750524406779593e-05 0.0000000000000000e+00  1.1545065677352844e-05 3.6208572190675588e-05 0.0000000000000000e+00  1.6045971351682488e-05 3.9978562974943792e-05 0.0000000000000000e+00  1.8667951194099671e-05 3.7859606564716211e-05 0.0000000000000000e+00  1.8083094609161918e-05 3.3069347455237567e-05 0.0000000000000000e+00  1.4907961989347273e-05 2.5340539293084918e-05 0.0000000000000000e+00  8.9463565216088767e-06 1.3995156636647570e-05 0.0000000000000000e+00  1.3422690916761290e-04 2.6623713656762030e-03 0.0000000000000000e+00  -8.9250030316494860e-06 2.6041763007727450e-03 0.0000000000000000e+00  8.5051489979242814e-06 1.7746841865339284e-05 0.0000000000000000e+00  2.8208988932406390e-04 1.6435172576782489e-03 0.0000000000000000e+00  2.6821750563934464e-04 2.2209818151490293e-03 0.0000000000000000e+00  3.2133065217244960e-05 3.8244733166021683e-05 0.0000000000000000e+00  1.7612004989529643e-04 7.3262959390383632e-04 0.0000000000000000e+00  2.3161978643621391e-04 1.2053666695099928e-03 0.0000000000000000e+00  4.4058664561579599e-05 -2.5347297405036931e-05 0.0000000000000000e+00  1.8702906237173637e-04 2.4244616063505047e-03 0.0000000000000000e+00  6.6499458842715533e-05 -1.9315853509873601e-04 0.0000000000000000e+00  1.0916844210277204e-04 -6.8692291944682604e-04 0.0000000000000000e+00  1.5232383212682713e-04 2.7834063396960128e-04 0.0000000000000000e+00  1.1400756832853866e-04 -1.0701974463364983e-03 0.0000000000000000e+00  1.6041601808262950e-04 -1.4351756587201056e-04 0.0000000000000000e+00  1.3304796351524566e-04 -1.3479643454750961e-03 0.0000000000000000e+00  1.7436026758517689e-04 -1.5356335278810741e-03 0.0000000000000000e+00  1.8670579342024195e-04 -5.4464588286153536e-04 0.0000000000000000e+00  1.8541732416371427e-04 -8.9304462064342149e-04 0.0000000000000000e+00  1.9745434041363132e-04 -1.5456540443463535e-03 0.0000000000000000e+00  1.9815913861987423e-04 -1.4474656089292076e-03 0.0000000000000000e+00  1.8908777674869786e-04 -1.1952982025585004e-03 0.0000000000000000e+00  7.5422174681794092e-05 -3.4996849076306748e-04 0.0000000000000000e+00  2.9741655834199677e-04 2.0339393985278125e-03 0.0000000000000000e+00  1.9444453014934386e-04 -1.3514547533395149e-03 0.0000000000000000e+00  1.0841315505822988e-04 -8.9487299667103803e-04 0.0000000000000000e+00  1.5679492820542328e-04 -1.4782208004941277e-03 0.0000000000000000e+00  3.9664096865005808e-05 1.7168598601176781e-05 0.0000000000000000e+00  1.4549319541105177e-04 2.5297635036386295e-03 0.0000000000000000e+00  2.0489487707865612e-05 3.3433870289596116e-05 0.0000000000000000e+00  1.3418144824516880e-04 -7.2357278067119763e-04 0.0000000000000000e+00  9.1844701479869468e-05 5.3915527020209633e-05 0.0000000000000000e+00  9.3012134408053707e-05 4.9184051992578125e-04 0.0000000000000000e+00  1.8503962237097723e-04 -1.5506127476987424e-03 0.0000000000000000e+00  1.1314059863794574e-04 -3.5106935142800299e-04 0.0000000000000000e+00  1.3195037939124922e-04 9.6049873803175773e-04 0.0000000000000000e+00  1.4950953003630110e-04 -1.0480591070001152e-03 0.0000000000000000e+00  1.9376727390575668e-04 1.4295015911359962e-03 0.0000000000000000e+00  2.1117992450829368e-04 -1.5015963576161552e-03 0.0000000000000000e+00  8.5996094425003496e-05 -1.2079992060052085e-03 0.0000000000000000e+00  3.6140373619597462e-05 -1.0610319268546043e-04 0.0000000000000000e+00  2.7299302683060877e-04 2.3329796944259345e-03 0.0000000000000000e+00  3.7130380961715773e-04 1.8330279711505813e-03 0.0000000000000000e+00  1.3355266647353814e-04 -5.0583151888571618e-04 0.0000000000000000e+00  1.9578623890580913e-04 1.7900538582785218e-03 0.0000000000000000e+00  1.6213607266445234e-05 -5.4154274425232286e-04 0.0000000000000000e+00  3.7508368943681549e-04 1.4729545976191573e-03 0.0000000000000000e+00  3.2023466620179953e-04 1.0140324281761870e-03 0.0000000000000000e+00  2.7247203907549436e-04 5.5312868881245451e-04 0.0000000000000000e+00  1.4502775388242810e-04 2.3408508500024324e-03 0.0000000000000000e+00  9.5082850444442159e-05 -8.8561908584808852e-05 0.0000000000000000e+00  2.6097075870156090e-04 -2.9191694295256518e-04 0.0000000000000000e+00  2.5573571954417212e-04 1.1666692842395192e-04 0.0000000000000000e+00  1.9412108432832371e-04 -1.5542252926944681e-03 0.0000000000000000e+00  1.8273337776922486e-04 -1.1771757481210423e-03 0.0000000000000000e+00  2.6417198946168164e-04 -7.7296252446212843e-04 0.0000000000000000e+00  2.5449077586655005e-04 -9.9932298164104576e-04 0.0000000000000000e+00  1.8205464454737260e-04 -1.5244144073053392e-03 0.0000000000000000e+00  5.7818553788469408e-06 1.3333326118680267e-05 0.0000000000000000e+00  3.8461189448394999e-06 7.7368185334845532e-06 0.0000000000000000e+00  1.4012694835258924e-04 -1.2603759153733190e-03 0.0000000000000000e+00  9.4894262840270494e-05 -1.3948263061732595e-03 0.0000000000000000e+00  2.3374803211273809e-05 -7.5950943614955745e-04 0.0000000000000000e+00  2.2271212470258995e-05 3.4325316452822620e-05 0.0000000000000000e+00  2.2447592397115625e-05 -4.4161806654112436e-06 0.0000000000000000e+00  1.5590763689110382e-04 -1.3964434917482368e-03 0.0000000000000000e+00  3.6014869442924751e-05 -9.6046454199168803e-04 0.0000000000000000e+00  1.3173902393621005e-04 -1.5003880631166832e-03 0.0000000000000000e+00  1.5595180482795222e-05 -2.8660669577767073e-04 0.0000000000000000e+00  2.0636219634333707e-04 2.1019959260820584e-03 0.0000000000000000e+00  3.7700966773913171e-04 2.1102872561959067e-03 0.0000000000000000e+00  1.2816039829168687e-04 -2.8666729452661848e-04 0.0000000000000000e+00  1.8599693040449647e-05 3.9602738458563550e-05 0.0000000000000000e+00  7.1832209053235808e-05 2.4503979226045279e-03 0.0000000000000000e+00  2.5015260263913403e-04 -1.2485572028993579e-03 0.0000000000000000e+00  2.3472265903260524e-04 -1.3867379276448714e-03 0.0000000000000000e+00  1.8891259089639614e-04 -7.6068591259861613e-04 0.0000000000000000e+00  4.8819905490856281e-05 2.8275462669869369e-05 0.0000000000000000e+00  7.5796932186083171e-05 -1.2439353808813633e-05 0.0000000000000000e+00  1.9522586164426824e-04 -1.4069800825416555e-03 0.0000000000000000e+00  2.0444999887135327e-04 -9.6612273814819711e-04 0.0000000000000000e+00  2.0256310811871838e-04 -1.5046924174170625e-03 0.0000000000000000e+00  1.4817877510582917e-05 3.2007262466341000e-05 0.0000000000000000e+00  3.8174461532681502e-05 2.5371118668569433e-03 0.0000000000000000e+00  3.6926155423939018e-04 1.2925349153138578e-03 0.0000000000000000e+00  3.1315563558442387e-04 8.2884916772297168e-04 0.0000000000000000e+00  1.1324626681083750e-04 -1.5473504536351473e-04 0.0000000000000000e+00  2.7662127516720576e-04 3.7783381599335898e-04 0.0000000000000000e+00  1.6596313045983934e-04 2.2582341953882126e-03 0.0000000000000000e+00  2.7036897349685810e-04 -4.6353746897446270e-05 0.0000000000000000e+00  2.7625131814046854e-04 -4.4250550640983295e-04 0.0000000000000000e+00  1.9249870068564811e-04 -1.2805964855430272e-03 0.0000000000000000e+00  2.7545737307819616e-04 -6.3453435705469058e-04 0.0000000000000000e+00  1.9385633048109408e-04 -1.5546959148621548e-03 0.0000000000000000e+00  2.5814494832270679e-04 -1.1087684818023170e-03 0.0000000000000000e+00  1.7005649485846958e-04 -1.4846128066700690e-03 0.0000000000000000e+00  2.2116484787132725e-04 2.4837141790259513e-03 0.0000000000000000e+00  1.9103129608312160e-04 1.9314252958640061e-03 0.0000000000000000e+00  4.0512688746030096e-06 -4.2700679362750563e-04 0.0000000000000000e+00  2.9355934677556421e-05 3.4412731440596197e-05 0.0000000000000000e+00  1.4098865369007146e-05 2.3531054244278908e-05 0.0000000000000000e+00  9.2051972906065176e-05 -8.3229263553917879e-04 0.0000000000000000e+00  2.2879857594225591e-04 -1.4597384115117304e-03 0.0000000000000000e+00  6.4509700030776431e-05 -4.7264316632608861e-04 0.0000000000000000e+00  4.7864174674246070e-05 8.1013101545770962e-04 0.0000000000000000e+00  3.7422377433715441e-05 -7.9030214539863529e-05 0.0000000000000000e+00  2.4015204625760983e-05 3.4767875003034201e-04 0.0000000000000000e+00  1.9804159212782836e-04 -1.5427181441535485e-03 0.0000000000000000e+00  1.1806977977604698e-04 -1.1363650501584280e-03 0.0000000000000000e+00  6.2309868136637436e-05 -1.2848485626627084e-03 0.0000000000000000e+00  1.5999765263947688e-04 -1.5371488837960625e-03 0.0000000000000000e+00  1.4586669335898329e-04 1.5730984906332959e-03 0.0000000000000000e+00  3.6143311156877597e-05 -1.1136879284399221e-03 0.0000000000000000e+00  1.2606128335444791e-04 1.2785202292185729e-03 0.0000000000000000e+00  1.0918443594028012e-05 -1.6029973911813785e-04 0.0000000000000000e+00  1.3224305975157485e-05 -5.8430090043906123e-05 0.0000000000000000e+00  2.7936088007708020e-04 2.3974325622921509e-03 0.0000000000000000e+00  3.5106622931342608e-04 2.2589695466206233e-03 0.0000000000000000e+00  6.3697287486085729e-05 6.5449853063472658e-04 0.0000000000000000e+00  5.2210714545548405e-05 2.0284923241050442e-04 0.0000000000000000e+00  9.2259672650001954e-05 -6.0128067507659135e-04 0.0000000000000000e+00  1.0613179058557577e-04 1.1252903219808211e-03 0.0000000000000000e+00  7.1349796243987205e-05 -2.1312689897760642e-04 0.0000000000000000e+00  1.1283468080221277e-04 -9.4398245562638255e-04 0.0000000000000000e+00  2.0963520270808619e-04 -1.5268034465639126e-03 0.0000000000000000e+00  1.5690008007871440e-04 -4.1638007731015214e-04 0.0000000000000000e+00  4.1641136681594762e-04 1.9434555678373012e-03 0.0000000000000000e+00  4.1229289707660346e-04 1.6972291481128236e-03 0.0000000000000000e+00  1.7367584964847561e-04 -6.0518528997452481e-04 0.0000000000000000e+00  2.6188830883414310e-04 -8.9075725927037367e-04 0.0000000000000000e+00  -5.3122294504853467e-07 -6.5685120625074670e-04 0.0000000000000000e+00  3.2550134682701407e-06 7.4653136836008455e-06 0.0000000000000000e+00  1.1296816529670001e-04 2.40316