<?xml version="1.0"?>
<VTKFile type="UnstructuredGrid"  version="0.1"  >
<UnstructuredGrid>
<Piece  NumberOfPoints="439" NumberOfCells="725">
<Points>
<DataArray  type="Float64"  NumberOfComponents="3"  format="ascii">0.5931953127218479 0.138431399426514 0  0.5970734719954141 0.1579676456172505 0  0.2489897949 0.21 0  0.2489897949 0.19 0  0.5951341092835745 0.148200192580158 0  0.2496355385699469 0.2060260530378829 0  0.249959460510575 0.2020130349814059 0  0.2499594605105767 0.1979869650186357 0  0.24963553856995 0.1939739469621422 0  0.2540344045772398 0.2099062498123649 0  0.2590838000613951 0.2098077212467053 0  0.2641294758537102 0.2096838908356052 0  0.2691647079557549 0.2094877851320377 0  0.2741901653924103 0.2092546420761314 0  0.279213258387066 0.2089685146471067 0  0.2842235518204945 0.2086579748830818 0  0.289220443575259 0.2083034157983561 0  0.2942127510256152 0.2079159515754426 0  0.2991956249799723 0.2074972256618326 0  0.3041765904357404 0.2070378080286995 0  0.3091550708859092 0.2065735457478714 0  0.3141189238303805 0.2060658235513746 0  0.3190890321982618 0.2055377754365984 0  0.3240449565555263 0.2049904062541585 0  0.3290007235441437 0.2044152340450979 0  0.3339523851396671 0.2038241162396664 0  0.33890064947109 0.2032052805111978 0  0.3438445280689971 0.2025759037306895 0  0.3487879348461297 0.2019226685275003 0  0.3537288657570647 0.2012530251827305 0  0.358666787469326 0.2005665773083974 0  0.363607801705107 0.1998536488307631 0  0.368548206426244 0.1991360144628473 0  0.3734823468429655 0.1983918654933418 0  0.3784115900026013 0.1976353513479395 0  0.3833363474004446 0.1968569191180142 0  0.3882553573854975 0.1960612992527418 0  0.3931665468067053 0.1952490193038716 0  0.3980736775287621 0.1944087931511244 0  0.4029783665105003 0.1935660714326647 0  0.4078697269551766 0.1927002636638458 0  0.4127553582626431 0.1918192054356929 0  0.4176368805679029 0.1909348555023269 0  0.4225065496080906 0.1900364808379157 0  0.4273700991959708 0.1891314500758625 0  0.4322244166257253 0.1882231841844946 0  0.4370686901715161 0.1873083077066416 0  0.4419062262958544 0.1863943716640566 0  0.4467341628163535 0.1854792979071692 0  0.4515555511908321 0.1845648031861024 0  0.4563695554754151 0.1836526430903535 0  0.4611799305744982 0.1827457923749989 0  0.4659885930885241 0.1818446656208856 0  0.4707961237080235 0.180950422211469 0  0.4756076517222962 0.1800659358876261 0  0.4804238215659583 0.1791898509736349 0  0.4852458202515778 0.1783228345862347 0  0.4900763829656142 0.1774661211324639 0  0.4949154333171706 0.1766174837225848 0  0.4997633002942902 0.175775983757553 0  0.5046193243565548 0.1749409077181979 0  0.5094826849534615 0.1741100920782267 0  0.5143534401550545 0.1732815347567559 0  0.5192292431380062 0.17245308433976 0  0.5241095280175492 0.1716230475681282 0  0.5289938351280482 0.170788031546481 0  0.5338800799445126 0.1699450477227596 0  0.5387671786188014 0.1690923233968341 0  0.5436533190808925 0.1682275783126782 0  0.5485363234300765 0.1673493114697439 0  0.5534168346163 0.1664614655909686 0  0.5582944206377912 0.1655538740927857 0  0.5631665815436281 0.1646313792906741 0  0.5680293574572595 0.1636982575248943 0  0.5728843595317354 0.1627519725383001 0  0.5777338828966688 0.1618010225795982 0  0.5825754014130128 0.1608445099519372 0  0.5874106886274056 0.1598841443992727 0  0.5922436416108703 0.1589259317146938 0  0.588365033705457 0.1393910558979072 0  0.5835359286491739 0.1403503908297317 0  0.5787076885741482 0.1413105213381221 0  0.5738846991328201 0.1422646876905742 0  0.5690641055406254 0.1432109662073567 0  0.5642461586782138 0.144147096287503 0  0.5594285730366787 0.1450672272732697 0  0.5546127861992783 0.1459728506595772 0  0.5497903791245664 0.1468614919840541 0  0.5449634199701856 0.1477339157219948 0  0.540129392050101 0.148592353015766 0  0.5352865023519334 0.1494384211929592 0  0.5304345768545936 0.1502772181379901 0  0.5255763254685981 0.1511094828043549 0  0.520711491714155 0.1519376657994909 0  0.515840880762943 0.152768856222005 0  0.5109649406299053 0.1535992581053363 0  0.506090082052711 0.1544364606518864 0  0.5012157807646465 0.1552835352722607 0  0.4963402393141592 0.1561339263260525 0  0.4914740379515441 0.1569966712441445 0  0.4866138420840647 0.1578694335345559 0  0.4817572275519935 0.1587461673572882 0  0.4769127117951469 0.159633820410087 0  0.4720739468934294 0.1605260016551023 0  0.4672408875738968 0.1614196009002196 0  0.4624142855399278 0.1623201137013582 0  0.4575885563466986 0.1632188763272195 0  0.4527677121692875 0.1641179819357346 0  0.4479443040327272 0.1650192481552954 0  0.4431153402662328 0.1659177343648864 0  0.438288352188256 0.166813631468244 0  0.4334541516944895 0.1677100680967447 0  0.428617614596446 0.1686049463788823 0  0.4237776426093933 0.1694981788216227 0  0.4189345390183895 0.1703852886520007 0  0.4140935522215112 0.1712687219928564 0  0.4092501698395022 0.172141719202871 0  0.4044092032598101 0.1730037438622626 0  0.3995688332466559 0.1738516155441779 0  0.3947263087638154 0.1746825905847554 0  0.3898786454857293 0.1755000952482495 0  0.3850259953735238 0.1762972238010198 0  0.3801765953249108 0.1770800613768493 0  0.3753151125779615 0.1778432840000036 0  0.3704552145895221 0.178588889992248 0  0.3655863173482495 0.1793225633613823 0  0.3607179814573774 0.1800379518954378 0  0.3558457513139365 0.1807421329750024 0  0.3509739093959263 0.1814276281818636 0  0.3461109665277344 0.1821002237974927 0  0.3412427784786268 0.1827510899735466 0  0.3363831690038356 0.1833798310121079 0  0.3315151541949488 0.1839893826037055 0  0.3266502436742869 0.1845700622087381 0  0.3217877428650443 0.1851435148193142 0  0.3169219561575634 0.1856853926170949 0  0.3120682263097938 0.1862053663042476 0  0.3072052427058915 0.1867021440204756 0  0.3023461667942605 0.1871634833094316 0  0.2974854297161478 0.1876042023111537 0  0.292623795549747 0.1880085718122199 0  0.2877746800834713 0.1883876774618124 0  0.2829121543148088 0.1887301508281319 0  0.2780664211975573 0.1890367481175989 0  0.2732103670276393 0.1892957358091001 0  0.2683702673959257 0.1895139779340648 0  0.263522068396758 0.1897007888926945 0  0.2586744506935236 0.18983483267962 0  0.2538308083035344 0.1899083735750747 0  0.5941652319503324 0.1433161454850345 0  0.5961032215740634 0.1530841639376921 0  0.2589891019638227 0.2004507091041196 0  0.5394425484712623 0.1588258618214299 0  0.5640678297721848 0.1542792865030782 0  0.2774816851446217 0.199925629012799 0  0.5105571011830676 0.1636868469366809 0  0.5251781559907243 0.1611947814103607 0  0.2943941083521028 0.197221882122382 0  0.5782131240192463 0.1510909583569933 0  0.3102671199082032 0.1964354611543957 0  0.3367716814006765 0.1942677402054733 0  0.4959616693448327 0.1662102390061098 0  0.3548065672846841 0.1910223005563792 0  0.4814281871884198 0.1688043394531124 0  0.370140353981036 0.1888096909234163 0  0.3890889753154001 0.185802135498826 0  0.4665364464427014 0.171184171830292 0  0.4521740761370578 0.1743405219283394 0  0.4033674751008145 0.1834650607117679 0  0.4183009143729465 0.1806723559284797 0  0.4370815888049513 0.1771638316595596 0  0.3200417764521407 0.1954328302258165 0  0.5544322979308953 0.1561146782231932 0  0.4266359137208471 0.1789765362572583 0  0.3463760941367952 0.1923336459218117 0  0.3806955122132336 0.1873157561837104 0  0.2860360723315427 0.198604511685596 0  0.5861194017624891 0.1482077746223244 0  0.2680509451259478 0.2012718552141251 0  0.4598006826414633 0.1751800926759179 0  0.4887338564426463 0.1698635399133734 0  0.5032942736761311 0.1673124503587795 0  0.3960285326779246 0.1823522992968805 0  0.4742440460989874 0.1724905482805923 0  0.5179057760493617 0.1648138829574957 0  0.4453457011039395 0.1779038335817404 0  0.5325313910322518 0.1623111917546892 0  0.4106160274367537 0.1797850265389456 0  0.3618379199500606 0.1877411969457569 0  0.3030643792949851 0.1949048456382116 0  0.5705377378538616 0.1507776900741458 0  0.5461220096998837 0.1547310701166952 0  0.3282644180637716 0.1973607184305803 0  0.5453118472018987 0.1616773475096397 0  0.3294990557426797 0.1904560136228202 0  0.5336309698782246 0.1559155376220301 0  0.5190252099695365 0.1584179365363023 0  0.5044071043939049 0.1609196667762077 0  0.5738520254658298 0.1563447957483964 0  0.3014357074941877 0.2011927268821754 0  0.4753025068022315 0.1661114137063818 0  0.4898219478839076 0.1634782313380967 0  0.3948882800105657 0.1887601659113854 0  0.3605466428040799 0.1941229377848304 0  0.4565693323268975 0.1695984745131221 0  0.4463788870992593 0.1715093938231353 0  0.4095287290997714 0.1861991229442747 0  0.255744847706271 0.1960407962757097 0  0.2550505009907452 0.2034044339462973 0  0.4339450821550166 0.181591775088217 0  0.3734242526873294 0.1844673186217145 0  0.3397596042495031 0.18906253368645 0  0.2810392423999769 0.1949464138981984 0  0.2909278522355984 0.1942765231397708 0  0.4240338887435111 0.1836233020017715 0  0.3491927433719503 0.1878070847225866 0  0.3834014366989146 0.1827185937524528 0  0.3160430790644761 0.1919978546189555 0  0.5588132905303288 0.1591416944882638 0  0.5576675557078807 0.1515470315804818 0  0.3164649257291864 0.1996936123307753 0  0.27090342231876 0.1954266695160055 0  0.5836377669739419 0.1552744082532533 0  0.4323140045403528 0.1734695479991952 0  0.4222564322996384 0.1757528295638136 0  0.3405114155410398 0.1977792186315622 0  0.2811375182396896 0.2036697152797177 0  0.2917218111585104 0.2029217499926644 0  0.3748287211408518 0.1926703007163847 0  0.3501877547313315 0.196880817825051 0  0.3846151296374066 0.1917756471463231 0  0.2646981285599939 0.1959164681342578 0  0.5903725609544349 0.1532477829570555 0  0.5278178973627364 0.15643164515082 0  0.5132044439604777 0.1589244543844049 0  0.3072821117050044 0.201112548254109 0  0.4985932423023779 0.1614438217837974 0  0.5682475850677509 0.157913832583112 0  0.4840299024504778 0.1640332139097485 0  0.4695751492321295 0.1666805659236867 0  0.3664081788437963 0.1937672061895628
[...]
<PointData  Vectors="d"> 
<DataArray  type="Float64"  Name="d"  NumberOfComponents="3" format="ascii">-6.8046872781519175e-03 -5.1568600573486036e-02 0.0000000000000000e+00  -2.9265280045860185e-03 -5.2032354382749529e-02 0.0000000000000000e+00  0.0000000000000000e+00 0.0000000000000000e+00 0.0000000000000000e+00  0.0000000000000000e+00 0.0000000000000000e+00 0.0000000000000000e+00  -4.8658907164257385e-03 -5.1799807419842053e-02 0.0000000000000000e+00  0.0000000000000000e+00 0.0000000000000000e+00 0.0000000000000000e+00  0.0000000000000000e+00 0.0000000000000000e+00 0.0000000000000000e+00  0.0000000000000000e+00 0.0000000000000000e+00 0.0000000000000000e+00  0.0000000000000000e+00 0.0000000000000000e+00 0.0000000000000000e+00  1.0080397161058611e-04 -9.3750187635094543e-05 0.0000000000000000e+00  2.0639375014088609e-04 -1.9227875329475762e-04 0.0000000000000000e+00  3.0826383681817896e-04 -3.1610916439475201e-04 0.0000000000000000e+00  3.9969023322498958e-04 -5.1221486796230239e-04 0.0000000000000000e+00  4.8134196425343414e-04 -7.4535792386863154e-04 0.0000000000000000e+00  5.6062925329062598e-04 -1.0314853528933113e-03 0.0000000000000000e+00  6.2711698110080492e-04 -1.3420251169181476e-03 0.0000000000000000e+00  6.8020303024246066e-04 -1.6965842016439317e-03 0.0000000000000000e+00  7.2870477496298142e-04 -2.0840484245573123e-03 0.0000000000000000e+00  7.6777302370139796e-04 -2.5027743381674343e-03 0.0000000000000000e+00  8.0493277384059692e-04 -2.9621919713005537e-03 0.0000000000000000e+00  8.3960751839108909e-04 -3.4264542521285695e-03 0.0000000000000000e+00  8.5965475724388289e-04 -3.9341764486254416e-03 0.0000000000000000e+00  8.8595741950692360e-04 -4.4622245634015588e-03 0.0000000000000000e+00  8.9807607115310612e-04 -5.0095937458414586e-03 0.0000000000000000e+00  9.1003735415205755e-04 -5.5847659549021498e-03 0.0000000000000000e+00  9.1789324404634859e-04 -6.1758837603335965e-03 0.0000000000000000e+00  9.2235186986144900e-04 -6.7947194888021449e-03 0.0000000000000000e+00  9.2242476213941107e-04 -7.4240962693104600e-03 0.0000000000000000e+00  9.2202583365367900e-04 -8.0773314724996385e-03 0.0000000000000000e+00  9.1915103897022082e-04 -8.7469748172695604e-03 0.0000000000000000e+00  9.1326704561333206e-04 -9.4334226916025724e-03 0.0000000000000000e+00  9.1047557577598711e-04 -1.0146351169236819e-02 0.0000000000000000e+00  9.0707459129448062e-04 -1.0863985537152739e-02 0.0000000000000000e+00  8.9740930238677420e-04 -1.1608134506658090e-02 0.0000000000000000e+00  8.8284675641358537e-04 -1.2364648652060535e-02 0.0000000000000000e+00  8.6379844863247767e-04 -1.3143080881985873e-02 0.0000000000000000e+00  8.3900272806378704e-04 -1.3938700747258182e-02 0.0000000000000000e+00  8.0638644364212973e-04 -1.4750980696128416e-02 0.0000000000000000e+00  7.6971146009159640e-04 -1.5591206848875570e-02 0.0000000000000000e+00  7.3059473620190206e-04 -1.6433928567335394e-02 0.0000000000000000e+00  6.7814947526581408e-04 -1.7299736336154180e-02 0.0000000000000000e+00  6.1997507711209019e-04 -1.8180794564307122e-02 0.0000000000000000e+00  5.5769167675103924e-04 -1.9065144497673117e-02 0.0000000000000000e+00  4.8355501132712662e-04 -1.9963519162084321e-02 0.0000000000000000e+00  4.0329889357887665e-04 -2.0868549924137392e-02 0.0000000000000000e+00  3.1381061770024938e-04 -2.1776815815505352e-02 0.0000000000000000e+00  2.1427845783875165e-04 -2.2691692293358389e-02 0.0000000000000000e+00  1.0800887652153407e-04 -2.3605628335943422e-02 0.0000000000000000e+00  -7.8603086434629019e-06 -2.4520702092830700e-02 0.0000000000000000e+00  -1.3027763981244373e-04 -2.5435196813897682e-02 0.0000000000000000e+00  -2.6007906087143867e-04 -2.6347356909646610e-02 0.0000000000000000e+00  -3.9350966741785460e-04 -2.7254207625001119e-02 0.0000000000000000e+00  -5.2865285904250196e-04 -2.8155334379114470e-02 0.0000000000000000e+00  -6.6492794517631769e-04 -2.9049577788530942e-02 0.0000000000000000e+00  -7.9720563657060270e-04 -2.9934064112373850e-02 0.0000000000000000e+00  -9.2484149855506781e-04 -3.0810149026365037e-02 0.0000000000000000e+00  -1.0466485185983301e-03 -3.1677165413765279e-02 0.0000000000000000e+00  -1.1598915101923249e-03 -3.2533878867536087e-02 0.0000000000000000e+00  -1.2646468642903475e-03 -3.3382516277415099e-02 0.0000000000000000e+00  -1.3605855927992564e-03 -3.4224016242446927e-02 0.0000000000000000e+00  -1.4483672361944350e-03 -3.5059092281802103e-02 0.0000000000000000e+00  -1.5288123449259765e-03 -3.5889907921773267e-02 0.0000000000000000e+00  -1.6018628489494647e-03 -3.6718465243244174e-02 0.0000000000000000e+00  -1.6698655716352059e-03 -3.7546915660240016e-02 0.0000000000000000e+00  -1.7333863977514387e-03 -3.8376952431871739e-02 0.0000000000000000e+00  -1.7928849928909574e-03 -3.9211968453518993e-02 0.0000000000000000e+00  -1.8504458820859234e-03 -4.0054952277240354e-02 0.0000000000000000e+00  -1.9071529134352453e-03 -4.0907676603165931e-02 0.0000000000000000e+00  -1.9648181569604127e-03 -4.1772421687321711e-02 0.0000000000000000e+00  -2.0256195134141903e-03 -4.2650688530256192e-02 0.0000000000000000e+00  -2.0889140328459095e-03 -4.3538534409031340e-02 0.0000000000000000e+00  -2.1551337169973921e-03 -4.4446125907214321e-02 0.0000000000000000e+00  -2.2267785168202572e-03 -4.5368620709325867e-02 0.0000000000000000e+00  -2.3078083088519988e-03 -4.6301742475105670e-02 0.0000000000000000e+00  -2.3966119400105302e-03 -4.7248027461699905e-02 0.0000000000000000e+00  -2.4908942807148095e-03 -4.8198977420401884e-02 0.0000000000000000e+00  -2.5931814700212706e-03 -4.9155490048062835e-02 0.0000000000000000e+00  -2.7016999612751291e-03 -5.0115855600727288e-02 0.0000000000000000e+00  -2.8125526834702672e-03 -5.1074068285306279e-02 0.0000000000000000e+00  -6.6911605889260536e-03 -5.0608944102092802e-02 0.0000000000000000e+00  -6.5764599395841238e-03 -4.9649609170268297e-02 0.0000000000000000e+00  -6.4608943089710068e-03 -4.8689478661877936e-02 0.0000000000000000e+00  -6.3400780446524925e-03 -4.7735312309425765e-02 0.0000000000000000e+00  -6.2168659312260999e-03 -4.6789033792643299e-02 0.0000000000000000e+00  -6.0910070880175011e-03 -4.5852903712497062e-02 0.0000000000000000e+00  -5.9647870239394928e-03 -4.4932772726730338e-02 0.0000000000000000e+00  -5.8367681557102164e-03 -4.4027149340422816e-02 0.0000000000000000e+00  -5.7153695247914851e-03 -4.3138508015945938e-02 0.0000000000000000e+00  -5.5985229735180638e-03 -4.2266084278005149e-02 0.0000000000000000e+00  -5.4887451880032811e-03 -4.1407646984233937e-02 0.0000000000000000e+00  -5.3878291805714027e-03 -4.0561578807040831e-02 0.0000000000000000e+00  -5.2959489723023966e-03 -3.9722781862009955e-02 0.0000000000000000e+00  -5.2103946526647635e-03 -3.8890517195645097e-02 0.0000000000000000e+00  -5.1314227015077487e-03 -3.8062334200509050e-02 0.0000000000000000e+00  -5.0582279470814534e-03 -3.7231143777994996e-02 0.0000000000000000e+00  -4.9903623745165097e-03 -3.6400741894663746e-02 0.0000000000000000e+00  -4.9214152461115523e-03 -3.5563539348113536e-02 0.0000000000000000e+00  -4.8519108285711319e-03 -3.4716464727739295e-02 0.0000000000000000e+00  -4.7836465734212106e-03 -3.3866073673947464e-02 0.0000000000000000e+00  -4.7060422304278579e-03 -3.3003328755855432e-02 0.0000000000000000e+00  -4.6224323922884249e-03 -3.2130566465444113e-02 0.0000000000000000e+00  -4.5352412187407804e-03 -3.1253832642711685e-02 0.0000000000000000e+00  -4.4359512699576331e-03 -3.0366179589913035e-02 0.0000000000000000e+00  -4.3309104660672563e-03 -2.9473998344897619e-02 0.0000000000000000e+00  -4.2201640799715322e-03 -2.8580399099780471e-02 0.0000000000000000e+00  -4.1029604083276348e-03 -2.7679886298641800e-02 0.0000000000000000e+00  -3.9848838959363770e-03 -2.6781123672780384e-02 0.0000000000000000e+00  -3.8619223677227228e-03 -2.5882018064265357e-02 0.0000000000000000e+00  -3.7415247986535894e-03 -2.4980751844704541e-02 0.0000000000000000e+00  -3.6266828595388221e-03 -2.4082265635113603e-02 0.0000000000000000e+00  -3.5098652318905845e-03 -2.3186368531756017e-02 0.0000000000000000e+00  -3.4002600200401948e-03 -2.2289931903255403e-02 0.0000000000000000e+00  -3.2929914124670955e-03 -2.1395053621117655e-02 0.0000000000000000e+00  -3.1891576938932330e-03 -2.0501821178377250e-02 0.0000000000000000e+00  -3.0884555792587143e-03 -1.9614711347999303e-02 0.0000000000000000e+00  -2.9856366704944372e-03 -1.8731278007143509e-02 0.0000000000000000e+00  -2.8852133468570836e-03 -1.7858280797129100e-02 0.0000000000000000e+00  -2.7823742208894580e-03 -1.6996256137737416e-02 0.0000000000000000e+00  -2.6789385283918945e-03 -1.6148384455822083e-02 0.0000000000000000e+00  -2.5776573055748251e-03 -1.5317409415244636e-02 0.0000000000000000e+00  -2.4815148780253930e-03 -1.4499904751750456e-02 0.0000000000000000e+00  -2.3903592845844436e-03 -1.3702776198980294e-02 0.0000000000000000e+00  -2.2959536275714760e-03 -1.2919938623150646e-02 0.0000000000000000e+00  -2.2136306688644238e-03 -1.2156715999996381e-02 0.0000000000000000e+00  -2.1297229516551116e-03 -1.1411110007752016e-02 0.0000000000000000e+00  -2.0548144872589258e-03 -1.0677436638617666e-02 0.0000000000000000e+00  -1.9793446724840919e-03 -9.9620481045622246e-03 0.0000000000000000e+00  -1.9077691102742681e-03 -9.2578670249975053e-03 0.0000000000000000e+00  -1.8358053226627319e-03 -8.5723718181364549e-03 0.0000000000000000e+00  -1.7549424851965639e-03 -7.8997762025073883e-03 0.0000000000000000e+00  -1.6793248286650832e-03 -7.2489100264533255e-03 0.0000000000000000e+00  -1.5951285978180441e-03 -6.6201689878921102e-03 0.0000000000000000e+00  -1.5193377010663484e-03 -6.0106173962944046e-03 0.0000000000000000e+00  -1.4404425160879828e-03 -5.4299377912618938e-03 0.0000000000000000e+00  -1.3591376196728708e-03 -4.8564851806857439e-03 0.0000000000000000e+00  -1.2811186214955598e-03 -4.3146073829049645e-03 0.0000000000000000e+00  -1.1910427636073089e-03 -3.7946336957525562e-03 0.0000000000000000e+00  -1.1102206618666618e-03 -3.2978559795243971e-03 0.0000000000000000e+00  -1.0254908678589884e-03 -2.8365166905683424e-03 0.0000000000000000e+00  -9.4242224033347474e-04 -2.3957976888463756e-03 0.0000000000000000e+00  -8.6025070109600732e-04 -1.9914281877800497e-03 0.0000000000000000e+00  -7.6556046171604504e-04 -1.6123225381876401e-03 0.0000000000000000e+00  -6.8428052472084197e-04 -1.2698491718681469e-03 0.0000000000000000e+00  -5.8620793631438317e-04 -9.6325188240115186e-04 0.0000000000000000e+00  -4.9845640058507540e-04 -7.0426419089990788e-04 0.0000000000000000e+00  -3.9475032666028668e-04 -4.8602206593531582e-04 0.0000000000000000e+00  -2.9914362018971765e-04 -2.9921110730540639e-04 0.0000000000000000e+00  -2.0295561778543340e-04 -1.6516732037996935e-04 0.0000000000000000e+00  -1.0279230212356252e-04 -9.1626424925238123e-05 0.0000000000000000e+00  -5.8347680496676751e-03 -5.1683854514943776e-02 0.0000000000000000e+00  -3.8967784259367998e-03 -5.1915836062280771e-02 0.0000000000000000e+00  1.5675432173432330e-05 -1.0168023872069557e-04 0.0000000000000000e+00  -3.7036859140450228e-03 -4.1174138178539058e-02 0.0000000000000000e+00  -4.1719597046311471e-03 -4.5691172077820488e-02 0.0000000000000000e+00  3.0292432819331279e-05 -8.6856292939367543e-04 0.0000000000000000e+00  -3.2924821938293291e-03 -3.6215495712410985e-02 0.0000000000000000e+00  -3.5028445030137172e-03 -3.8707561238736123e-02 0.0000000000000000e+00  -1.1678685366191377e-04 -2.0693087181566155e-03 0.0000000000000000e+00  -4.5649591192462469e-03 -4.8452021743341574e-02 0.0000000000000000e+00  -1.4571974872237047e-04 -3.5349974265020683e-03 0.0000000000000000e+00  -2.2849414117860164e-04 -6.5617210379234816e-03 0.0000000000000000e+00  -3.0564969152133141e-03 -3.3692103642980378e-02 0.0000000000000000e+00  -4.7505028622039404e-04 -8.9776994436816578e-03 0.0000000000000000e+00  -2.7585619547727384e-03 -3.1098003195972522e-02 0.0000000000000000e+00  -5.9701740951920851e-04 -1.1204546771952621e-02 0.0000000000000000e+00  -7.9928219484942339e-04 -1.4197864501256858e-02 0.0000000000000000e+00  -2.4493086065720689e-03 -2.8357500595377384e-02 0.0000000000000000e+00  -1.9836555471387639e-03 -2.5659478071570260e-02 0.0000000000000000e+00  -9.8601630101861535e-04 -1.6632596639156449e-02 0.0000000000000000e+00  -1.2501773710102524e-03 -1.9327644071626050e-02 0.0000000000000000e+00  -1.6203890594997763e-03 -2.2821930645117627e-02 0.0000000000000000e+00  -2.0549857352956659e-04 -4.5760539888233826e-03 0.0000000000000000e+00  -3.9730561771898288e-03 -4.3876437562164472e-02 0.0000000000000000e+00  -1.4308009678663622e-03 -2.0872368563565821e-02 0.0000000000000000e+00  -3.8990048975226461e-04 -7.8174492576257477e-03 0.0000000000000000e+00  -6.7712235265709444e-04 -1.2835338995741635e-02 0.0000000000000000e+00  -3.2265360667202908e-05 -1.4370328850221788e-03 0.0000000000000000e+00  -5.0029794156305225e-03 -5.0037141312550014e-02 0.0000000000000000e+00  6.1628980085133073e-05 -4.0327043260399094e-04 0.0000000000000000e+00  -1.7727576011645589e-03 -2.7070270652882405e-02 0.0000000000000000e+00  -2.5024180336989665e-03 -3.2386823415435723e-02 0.0000000000000000e+00  -2.7734179170672895e-03 -3.4937912970032320e-02 0.0000000000000000e+00  -1.2754333907529548e-03 -1.5397337374315976e-02 0.0000000000000000e+00  -2.1608112605021835e-03 -2.9759815048212818e-02 0.0000000000000000e+00  -2.9933326606838635e-03 -3.7436480371322779e-02 0.0000000000000000e+00  -1.3963220218260811e-03 -2.4346529747059538e-02 0.0000000000000000e+00  -3.1991347946329473e-03 -3.9939171574130600e-02 0.0000000000000000e+00  -1.5193557487778355e-03 -1.7964610132252163e-02 0.0000000000000000e+00  -8.5940617927459588e-04 -1.0008439725434970e-02 0.0000000000000000e+00  -3.0727836691086835e-04 -2.8447910329752325e-03 0.0000000000000000e+00  -4.7432336179612112e-03 -4.6971946597004481e-02 0.0000000000000000e+00  -4.3378462191725068e-03 -4.2397408357071426e-02 0.0000000000000000e+00  7.1644849087433658e-05 -5.5108030956603545e-03 0.0000000000000000e+00  -3.1060548478472607e-03 -4.2162974059836655e-02 0.0000000000000000e+00  -7.3567134131904803e-04 -5.7036648077288627e-03 0.0000000000000000e+00  -4.2901153455867534e-03 -4.0209644042380907e-02 0.0000000000000000e+00  -4.0644581374285520e-03 -3.7707245128103410e-02 0.0000000000000000e+00  -3.8511465962171730e-03 -3.5205514888202061e-02 0.0000000000000000e+00  -3.6195054028794133e-03 -4.7530022587192258e-02 0.0000000000000000e+00  2.5460922923301364e-04 -2.6820914534183430e-03 0.0000000000000000e+00  -3.2929099541796568e-03 -3.0013767958022172e-02 0.0000000000000000e+00  -3.6048859893594047e-03 -3.2646950326309584e-02 0.0000000000000000e+00  -2.2512666119732213e-04 -1.5114652424211162e-02 0.0000000000000000e+00  3.9876071668195096e-05 -9.7518805507646467e-03 0.0000000000000000e+00  -2.8135485188169971e-03 -2.6526707151277192e-02 0.0000000000000000e+00  -2.5536954234211240e-03 -2.4615787841265332e-02 0.0000000000000000e+00  -4.1609468885063635e-04 -1.7675695391324329e-02 0.0000000000000000e+00  -4.1452273926036011e-05 -4.5040750019809188e-05 0.0000000000000000e+00  3.5764959805469557e-05 -3.8209052814231564e-05 0.0000000000000000e+00  -8.5806549145223782e-04 -2.2181982675938416e-02 0.0000000000000000e+00  -1.2119489210806007e-03 -1.1758923614140845e-02 0.0000000000000000e+00  -8.6623233692749663e-04 -6.9842585075389216e-03 0.0000000000000000e+00  -2.6092571900642743e-04 -1.1003782958517460e-03 0.0000000000000000e+00  -3.4078650839081175e-04 -1.8051097251574912e-03 0.0000000000000000e+00  -6.3664483847811421e-04 -2.0329905804182834e-02 0.0000000000000000e+00  -9.6943236096261548e-04 -8.2397074716011563e-03 0.0000000000000000e+00  -1.3673789733548672e-03 -1.3328198441783141e-02 0.0000000000000000e+00  -5.8928947387985886e-04 -4.1616039444143851e-03 0.0000000000000000e+00  -3.3417105750123072e-03 -4.4639954771635265e-02 0.0000000000000000e+00  -4.7738319940962186e-03 -4.4529160780655913e-02 0.0000000000000000e+00  2.2542214587355786e-04 -4.1743434116938436e-03 0.0000000000000000e+00  -1.8529110200220041e-04 -5.4297481657832308e-04 0.0000000000000000e+00  -3.6636706664185852e-03 -4.9448379849828965e-02 0.0000000000000000e+00  -2.3539521039181257e-03 -2.1995597956056122e-02 0.0000000000000000e+00  -2.0732181081602138e-03 -2.0122868530092611e-02 0.0000000000000000e+00  2.5546445768743516e-04 -7.0148313975301191e-03 0.0000000000000000e+00  2.6902556359638136e-04 -1.1045265015479529e-03 0.0000000000000000e+00  3.1410784463810885e-04 -1.8592017144310813e-03 0.0000000000000000e+00  5.7328530358525872e-05 -1.1864553328470671e-02 0.0000000000000000e+00  2.6610584144488522e-04 -8.2945234935795312e-03 0.0000000000000000e+00  8.6840808176882515e-05 -1.3399694172312860e-02 0.0000000000000000e+00  -1.1635798551150774e-04 -2.9250616437962042e-04 0.0000000000000000e+00  -3.9522034118543549e-03 -5.0793759401862662e-02 0.0000000000000000e+00  -4.2793636828778727e-03 -3.9212864754267177e-02 0.0000000000000000e+00  -4.0613999682949800e-03 -3.6720055520680479e-02 0.0000000000000000e+00  2.8978614473859133e-04 -3.2342551331461661e-03 0.0000000000000000e+00  -3.8411845095484981e-03 -3.4200688121289013e-02 0.0000000000000000e+00  -3.4127185056840141e-03 -4.6432970804164184e-02 0.0000000000000000e+00  -3.5731072445962676e-03 -3.1611295995334687e-02 0.0000000000000000e+00  -3.2400482974968042e-03 -2.8959680967302646e-02 0.0000000000000000e+00  7.8001191042448138e-05 -1.0600248674297189e-02 0.0000000000000000e+00  -3.0488460232680563e-03 -2.7569859234930532e-02 0.0000000000000000e+00  -2.1651490412169058e-04 -1.6110297078344275e-02 0.0000000000000000e+00  -2.5077214245602854e-03 -2.3539997737858413e-02 0.0000000000000000e+00  -4.1928202277101108e-04 -1.8722296349828721e-02 0.0000000000000000e+00  -5.3917719637641475e-03 -4.9082684898663208e-02 0.0000000000000000e+00  -3.0885402470420763e-03 -4.3196211123342668e-02 0.0000000000000000e+00  -7.4219355550973721e-04 -5.0287446768013770e-03 0.0000000000000000e+00  2.1998414965602230e-04 -5.9980809429715251e-04 0.0000000000000000e+00  1.2173274574294941e-04 -2.4199891164977246e-04 0.0000000000000000e+00  -1.2178592187803818e-03 -2.6250295800720188e-02 0.0000000000000000e+00  -1.9975110008571004e-03 -1.8755963345674125e-02 0.0000000000000000e+00  -1.6137788659807356e-03 -2.8955272801696599e-02 0.0000000000000000e+00  -2.5329340376046439e-03 -3.6666918011920804e-02 0.0000000000000000e+00  -1.9984463086284063e-03 -3.1594795712476587e-02 0.0000000000000000e+00  -2.2977359217075601e-03 -3.4161548692548414e-02 0.0000000000000000e+00  -1.6288053783918670e-03 -1.6220924459886939e-02 0.0000000000000000e+00  -8.8638732597354957e-04 -2.3535344202707104e-02 0.0000000000000000e+00  -1.2269847355946698e-03 -1.0672563546555202e-02 0.0000000000000000e+00  -1.5979072403221784e-03 -1.4575989492658026e-02 0.0000000000000000e+00  -2.8475978894197309e-03 -4.0797120320971415e-02 0.0000000000000000e+00  -1.1518880969854802e-03 -9.3102519789969428e-03 0.0000000000000000e+00  -2.8535136137376963e-03 -3.9118530489241694e-02 0.0000000000000000e+00  -5.5982826634812428e-04 -3.2746409019597925e-03 0.0000000000000000e+00  -4.7754588230107585e-04 -2.4062288842930939e-03 0.0000000000000000e+00  -5.2639913206702412e-03 -4.7760023505410580e-02 0.0000000000000000e+00  -5.0898306868386372e-03 -4.6012085476768792e-02 0.0000000000000000e+00  -2.6308889336561407e-03 -3.5834549420919688e-02 0.0000000000000000e+00  -2.3791565950046236e-03 -3.3310034266991230e-02 0.0000000000000000e+00  -1.6259133144746454e-03 -2.8019544288659267e-02 0.0000000000000000e+00  -2.7980746962396040e-03 -3.8304240592446262e-02 0.0000000000000000e+00  -2.0579343244324817e-03 -3.0714441164997008e-02 0.0000000000000000e+00  -1.2217959107329631e-03 -2.5306287154782399e-02 0.0000000000000000e+00  -1.7020491480131583e-03 -1.7055867902672953e-02 0.0000000000000000e+00  2.9960154818623152e-04 -4.9836002900548017e-03 0.0000000000000000e+00  -4.7590182793710986e-03 -4.3195833113996843e-02 0.0000000000000000e+00  -4.5469939883093476e-03 -4.1545652993630222e-02 0.0000000000000000e+00  2.5747843819498751e-04 -