<?xml version="1.0"?>
<VTKFile type="UnstructuredGrid"  version="0.1"  >
<UnstructuredGrid>
<Piece  NumberOfPoints="439" NumberOfCells="725">
<Points>
<DataArray  type="Float64"  NumberOfComponents="3"  format="ascii">0.5819667827462278 0.08979340039520377 0  0.5901293110235079 0.1088329961571569 0  0.2489897949 0.21 0  0.2489897949 0.19 0  0.5860490577847535 0.09931508443589232 0  0.2496355385699469 0.2060260530378829 0  0.249959460510575 0.2020130349814059 0  0.2499594605105767 0.1979869650186357 0  0.24963553856995 0.1939739469621422 0  0.2540440165419304 0.2099037622855409 0  0.2591135170149493 0.2097978726356688 0  0.2641808283281525 0.2096555166986739 0  0.2692343335639411 0.2094123065761282 0  0.2742773872787513 0.2091123547021339 0  0.2793183601399876 0.2087316277243235 0  0.2843437208848932 0.2083088351809735 0  0.2893507609857694 0.2078113777716477 0  0.2943561917034466 0.2072534398089994 0  0.2993515757122365 0.2066346097569943 0  0.3043561025538934 0.205930931921874 0  0.3093605121597957 0.2052188242190953 0  0.3143487398485458 0.2044068703304751 0  0.3193609429558759 0.203550991829483 0  0.3243482275130831 0.2026451306265331 0  0.3293438399874506 0.2016701830098462 0  0.3343342945392046 0.2006548229432898 0  0.3393223265943233 0.1995690509042264 0  0.344297926961219 0.1984532833954612 0  0.3492708419273871 0.1972763964022544 0  0.3542329398120142 0.1960546292326127 0  0.3591783220818231 0.1947879835413857 0  0.3641095583499389 0.1934478830607038 0  0.3690350534335185 0.1920919763057158 0  0.3739263866622655 0.1906679168980425 0  0.3787964330452835 0.1892147107161331 0  0.3836413503854677 0.1877092424359296 0  0.388463730657472 0.186168029899147 0  0.3932613794855072 0.1845963442955462 0  0.3980344810498112 0.1829754969925592 0  0.402802200535427 0.1813488284109319 0  0.4075338445079671 0.1796901632254602 0  0.412247514242333 0.1780031308395781 0  0.4169560136263208 0.176309092948877 0  0.4216377524795065 0.1745892513909236 0  0.4263175186569376 0.1728519696856843 0  0.4309811266243359 0.1711052687017436 0  0.435642069876885 0.1693435234807142 0  0.4402929821690856 0.1675809092230102 0  0.4449412034889997 0.1658170256087436 0  0.4495849681239576 0.16405755046074 0  0.4542262632007055 0.1623017284648002 0  0.4588605589878135 0.1605596478148922 0  0.4634907215822828 0.1588239185035141 0  0.4681205385088697 0.1570974216897972 0  0.4727406786443544 0.1553818933782251 0  0.477364232427115 0.1536677988837503 0  0.4819938621633024 0.1519587501691531 0  0.4866208373775462 0.1502416717232924 0  0.491258725711629 0.1485154298190835 0  0.4959096793893464 0.1467827049548694 0  0.500567770731593 0.1450297159686235 0  0.5052397111122988 0.1432604736059337 0  0.5099266481631414 0.1414769874833814 0  0.5146235649383074 0.1396764184670412 0  0.519331759273743 0.1378595353048639 0  0.524052456557719 0.1360284242899124 0  0.528782670710147 0.13417952171868 0  0.5335220402651271 0.1323245968996669 0  0.5382576419271332 0.1304532450862616 0  0.5429906691459401 0.1285542041437627 0  0.5477355887721607 0.1266502012036865 0  0.5524692874024542 0.1247324402751036 0  0.5572088423163828 0.1227888494749974 0  0.5619360136419308 0.1208359947432679 0  0.5666478394671839 0.1188574458788899 0  0.5713615675466889 0.1168736699872918 0  0.5760561456180432 0.1148766550511977 0  0.5807486848134434 0.1128644135873226 0  0.5854387289219609 0.1108523457547857 0  0.5772546661687183 0.09180257359808949 0  0.572543310594368 0.09380156753670672 0  0.5678372138635108 0.09579600525040428 0  0.5631293304281576 0.09779262923740592 0  0.5584192025342778 0.09977941920793813 0  0.5537188777844781 0.1017696360884365 0  0.5490179308071127 0.1037509241395127 0  0.5443224324517935 0.105719740462834 0  0.539637632367148 0.1076838602723196 0  0.5349552796320031 0.1096288749295034 0  0.5302897091921207 0.1115642006874494 0  0.5256195776084401 0.1134836715029006 0  0.5209608297991788 0.1153719182154615 0  0.5163265101445736 0.1172537698871205 0  0.5116884536702383 0.119116698080446 0  0.5070672855391123 0.1209485520553634 0  0.5024631975752505 0.1227726206990762 0  0.4978556266036226 0.1245717016479221 0  0.493266306975337 0.1263430701683679 0  0.4886825800029529 0.1281092029425433 0  0.484090447895813 0.1298464658092559 0  0.4795092660901169 0.1315645660938823 0  0.4749218277215562 0.1332842833529908 0  0.4703202888804068 0.1349810029730421 0  0.4657205738935845 0.1366743603402758 0  0.4611106158062438 0.1383774588219194 0  0.4564877696611278 0.1400712802058153 0  0.4518649684718399 0.1417787186533706 0  0.4472351055754138 0.1434931623435525 0  0.4426046588080674 0.145214904788621 0  0.4379790215515898 0.1469417506470289 0  0.4333557722822188 0.1486755170840318 0  0.4287373852697775 0.1504073643349593 0  0.4241259636760433 0.1521387867219207 0  0.4195163031441763 0.1538579262216674 0  0.414904927134005 0.1555619557165244 0  0.4102956253091647 0.1572493015378895 0  0.405679623625216 0.1589146355299182 0  0.401058667357843 0.1605569305824966 0  0.3964282618844956 0.1621683694358271 0  0.3917824567078571 0.1637473333013863 0  0.3871215206552296 0.1653027030037806 0  0.3824420464908889 0.1668179070112669 0  0.377765220751571 0.168297000879067 0  0.3730536100957306 0.1697327220253243 0  0.36833617891805 0.1711199018721538 0  0.3635891217328611 0.1724777156283786 0  0.35882604461363 0.1737856400924842 0  0.3540444844353654 0.1750676982060102 0  0.3492492740899264 0.1763068559684516 0  0.3444659452755497 0.1775164520348215 0  0.339665425268144 0.1786817788082506 0  0.3348836053649376 0.1798004979074855 0  0.33008570978079 0.1808757853588121 0  0.325302753702738 0.1818848371616436 0  0.3205282595401744 0.1828774451813104 0  0.3157544083874689 0.1837921451574165 0  0.3110126259787732 0.1846572365214195 0  0.3062534865046004 0.1854608063033511 0  0.3015061307475163 0.1861846358599739 0  0.2967538331875788 0.1868604113967313 0  0.2919983662750012 0.1874572419045767 0  0.2872628906275859 0.1879995522259769 0  0.2824947503672162 0.188473105701648 0  0.2777463307398169 0.1888760430618655 0  0.2729666815169112 0.1892038977927556 0  0.2681989144348964 0.1894646416159095 0  0.2634088255265809 0.1896827513271225 0  0.2586074586223264 0.1898286533147472 0  0.2537999433933947 0.189898307081349 0  0.5840088282835055 0.09455627091470406 0  0.5880866273875569 0.1040761887044512 0  0.2589849757324261 0.2004674684024145 0  0.5320145601544587 0.1219606749015712 0  0.5558961188533836 0.1121170963636365 0  0.2774036206107022 0.1997827770546583 0  0.5042157458345164 0.1328193719789667 0  0.5182307125397891 0.1273467506141648 0  0.2941223276959142 0.1966251708858271 0  0.5695178571909503 0.1058709838371045 0  0.3098732654032822 0.1950592110658615 0  0.336309122314658 0.1907945473514235 0  0.4903005644900799 0.1381293970316349 0  0.3541948486149037 0.1856137725912143 0  0.4764464227098194 0.143291065927055 0  0.3693598527905847 0.1814968316913869 0  0.3878508279322176 0.1757602220434031 0  0.4621132544085162 0.1481879880232504 0  0.448387469068557 0.1537804741360989 0  0.4016578718266468 0.1711910555095099 0  0.4159526616197687 0.1659579009975662 0  0.4338955340608609 0.1592312575758469 0  0.3195785679253824 0.1933954500117273 0  0.5465537295344192 0.1160309948431038 0  0.4238878883669144 0.1628515556691715 0  0.3458195742666815 0.187872899994404 0  0.3797102403775961 0.1785287670975885 0  0.2858694923474238 0.1982657873232696 0  0.5769005927588701 0.101257205370813 0  0.2680327510290494 0.2012430213830209 0  0.4561299717873514 0.1532979612443839 0  0.483868607105166 0.1430404909919589 0  0.4977606549442471 0.1378167445880469 0  0.394227035426585 0.1712345759264116 0  0.4700109374109404 0.1481607831985352 0  0.5117469446499602 0.1324324205685484 0  0.4422194206957845 0.1585181026528485 0  0.5258341481104383 0.1269008647191004 0  0.408234819014768 0.1663370965318294 0  0.360893616394141 0.1814651206649725 0  0.3026202410652079 0.1939216785675434 0  0.5616693378477638 0.1071781819614874 0  0.5378235671131331 0.1164252922149313 0  0.3279989045994177 0.1946717002482476 0  0.5385556200184036 0.1235569169763089 0  0.3286517728317983 0.1876089840621478 0  0.5255154588437173 0.1203103622303614 0  0.511498391000224 0.1258892712990535 0  0.4975710215485319 0.1313080608824013 0  0.566253884301378 0.1121453583738006 0  0.3013194415472443 0.2002785204879083 0  0.4698925166759104 0.1416781988548136 0  0.4837224188440649 0.1365560433846237 0  0.3940443102569086 0.1778300363443653 0  0.3603484394056344 0.188066742414844 0  0.4519266701920577 0.1483099518089324 0  0.4421384553141873 0.1519661600379695 0  0.4081766675993069 0.1729280199667699 0  0.2557292426745423 0.1960558907268666 0  0.2550561442233478 0.2034170828649711 0  0.4315499775639176 0.1641974749389282 0  0.3720780311902083 0.1766775508024254 0  0.3388169285577665 0.1852423774584887 0  0.2808166080194338 0.1947387603413081 0  0.2905776063947251 0.1938019649930587 0  0.4220930635549381 0.167935622574889 0  0.3481812346029756 0.1829896313959954 0  0.3817675111608845 0.1735143782856745 0  0.3153388850424614 0.1902294634067034 0  0.5516465067111364 0.1181551316737625 0  0.5487799669835132 0.1107149629006423 0  0.3162906899890677 0.1979138476951566 0  0.2707831550924104 0.1953719871889783 0  0.5759271184510182 0.1089816890011354 0  0.4285650866683739 0.1563694889843548 0  0.4190416485193033 0.1603750774904882 0  0.3404330666419763 0.1939670342531075 0  0.2811307914934587 0.2034370606585577 0  0.2916801137297506 0.2023946960658568 0  0.3745521315340686 0.1847433882773396 0  0.3501603598901277 0.1920478648670954 0  0.3842291817439235 0.1824263949444889 0  0.264632013308303 0.19590693612784 0  0.5823093357712051 0.1054792537717034 0  0.5198074311364571 0.1220669241508874 0  0.5058305236076148 0.1275867240335545 0  0.3071624898704178 0.1998955719816229 0  0.4919467273369089 0.1329379576934109 0  0.560924219856645 0.1149214852902628 0  0.4781192386378096 0.1381274221116956 0  0.4643232180889112 0.1432112403312508 0  0.3662179806529493 0.18697633159207
[...]
<PointData  Vectors="d"> 
<DataArray  type="Float64"  Name="d"  NumberOfComponents="3" format="ascii">-1.8033217253771973e-02 -1.0020659960479623e-01 0.0000000000000000e+00  -9.8706889764921570e-03 -1.0116700384284308e-01 0.0000000000000000e+00  0.0000000000000000e+00 0.0000000000000000e+00 0.0000000000000000e+00  0.0000000000000000e+00 0.0000000000000000e+00 0.0000000000000000e+00  -1.3950942215246655e-02 -1.0068491556410782e-01 0.0000000000000000e+00  0.0000000000000000e+00 0.0000000000000000e+00 0.0000000000000000e+00  0.0000000000000000e+00 0.0000000000000000e+00 0.0000000000000000e+00  0.0000000000000000e+00 0.0000000000000000e+00 0.0000000000000000e+00  0.0000000000000000e+00 0.0000000000000000e+00 0.0000000000000000e+00  1.1041593630135855e-04 -9.6237714459099162e-05 0.0000000000000000e+00  2.3611070369519967e-04 -2.0212736433116265e-04 0.0000000000000000e+00  3.5961631126046423e-04 -3.4448330132596703e-04 0.0000000000000000e+00  4.6931584141110923e-04 -5.8769342387184184e-04 0.0000000000000000e+00  5.6856385059420218e-04 -8.8764529786619184e-04 0.0000000000000000e+00  6.6573100621209749e-04 -1.2683722756764296e-03 0.0000000000000000e+00  7.4728604549943159e-04 -1.6911648190263706e-03 0.0000000000000000e+00  8.1052044075277283e-04 -2.1886222283523599e-03 0.0000000000000000e+00  8.7214545279431469e-04 -2.7465601910006136e-03 0.0000000000000000e+00  9.2372375596562559e-04 -3.3653902430057711e-03 0.0000000000000000e+00  9.8444489199366785e-04 -4.0690680781261066e-03 0.0000000000000000e+00  1.0450487922776762e-03 -4.7811757809046035e-03 0.0000000000000000e+00  1.0894707754092201e-03 -5.5931296695250028e-03 0.0000000000000000e+00  1.1578681771209076e-03 -6.4490081705169261e-03 0.0000000000000000e+00  1.2013470287099079e-03 -7.3548693734668460e-03 0.0000000000000000e+00  1.2531537974590013e-03 -8.3298169901538047e-03 0.0000000000000000e+00  1.2998026435837630e-03 -9.3451770567101328e-03 0.0000000000000000e+00  1.3440289930947596e-03 -1.0430949095773594e-02 0.0000000000000000e+00  1.3758236543612980e-03 -1.1546716604538694e-02 0.0000000000000000e+00  1.4049329149112184e-03 -1.2723603597745527e-02 0.0000000000000000e+00  1.4232250939197652e-03 -1.3945370767387279e-02 0.0000000000000000e+00  1.4248016581106008e-03 -1.5212016458614256e-02 0.0000000000000000e+00  1.4122322206078959e-03 -1.6552116939296136e-02 0.0000000000000000e+00  1.3939215985688757e-03 -1.7908023694284184e-02 0.0000000000000000e+00  1.3414491216867737e-03 -1.9332083101957408e-02 0.0000000000000000e+00  1.2676897990959285e-03 -2.0785289283866949e-02 0.0000000000000000e+00  1.1688014336555751e-03 -2.2290757564070465e-02 0.0000000000000000e+00  1.0473760000381943e-03 -2.3831970100852955e-02 0.0000000000000000e+00  9.0121912244401194e-04 -2.5403655704453857e-02 0.0000000000000000e+00  7.3051498114076469e-04 -2.7024503007440845e-02 0.0000000000000000e+00  5.5442876112858348e-04 -2.8651171589068197e-02 0.0000000000000000e+00  3.4226702805619939e-04 -3.0309836774539786e-02 0.0000000000000000e+00  1.1213105680201295e-04 -3.1996869160421985e-02 0.0000000000000000e+00  -1.2317526483095458e-04 -3.3690907051123084e-02 0.0000000000000000e+00  -3.8524211725702272e-04 -3.5410748609076434e-02 0.0000000000000000e+00  -6.4928164545423274e-04 -3.7148030314315621e-02 0.0000000000000000e+00  -9.2947938368907008e-04 -3.8894731298256408e-02 0.0000000000000000e+00  -1.2123418367923110e-03 -4.0656476519285764e-02 0.0000000000000000e+00  -1.5052352502472170e-03 -4.2419090776989743e-02 0.0000000000000000e+00  -1.8008196359970152e-03 -4.4182974391256201e-02 0.0000000000000000e+00  -2.1008607066869698e-03 -4.5942449539260022e-02 0.0000000000000000e+00  -2.4033713355809051e-03 -4.7698271535199933e-02 0.0000000000000000e+00  -2.7128812541024738e-03 -4.9440352185107748e-02 0.0000000000000000e+00  -3.0265243652837942e-03 -5.1176081496485892e-02 0.0000000000000000e+00  -3.3405131443301561e-03 -5.2902578310202772e-02 0.0000000000000000e+00  -3.6641787145124298e-03 -5.4618106621774881e-02 0.0000000000000000e+00  -3.9844306373983621e-03 -5.6332201116249675e-02 0.0000000000000000e+00  -4.2986066068738029e-03 -5.8041249830846971e-02 0.0000000000000000e+00  -4.6154370982602715e-03 -5.9758328276707573e-02 0.0000000000000000e+00  -4.9213544698320927e-03 -6.1484570180916479e-02 0.0000000000000000e+00  -5.2142064977429977e-03 -6.3217295045130573e-02 0.0000000000000000e+00  -5.4999208611561223e-03 -6.4970284031376405e-02 0.0000000000000000e+00  -5.7717861860886082e-03 -6.6739526394066259e-02 0.0000000000000000e+00  -6.0286548408629683e-03 -6.8523012516618645e-02 0.0000000000000000e+00  -6.2755437713341170e-03 -7.0323581532958923e-02 0.0000000000000000e+00  -6.5111551415577059e-03 -7.2140464695135922e-02 0.0000000000000000e+00  -6.7342635632204016e-03 -7.3971575710087598e-02 0.0000000000000000e+00  -6.9478551164517607e-03 -7.5820478281320020e-02 0.0000000000000000e+00  -7.1522912671097795e-03 -7.7675403100333121e-02 0.0000000000000000e+00  -7.3604953107199618e-03 -7.9546754913738291e-02 0.0000000000000000e+00  -7.5712737975507415e-03 -8.1445795856237360e-02 0.0000000000000000e+00  -7.7701598769848359e-03 -8.3349798796313407e-02 0.0000000000000000e+00  -7.9802669523345218e-03 -8.5267559724896497e-02 0.0000000000000000e+00  -8.1845177440655580e-03 -8.7211150525002598e-02 0.0000000000000000e+00  -8.4011521241806695e-03 -8.9164005256732057e-02 0.0000000000000000e+00  -8.6331320045620191e-03 -9.1142554121110150e-02 0.0000000000000000e+00  -8.8632096306949047e-03 -9.3126330012708203e-02 0.0000000000000000e+00  -9.1124372649908532e-03 -9.5123344948802285e-02 0.0000000000000000e+00  -9.3637037752372296e-03 -9.7135586412677333e-02 0.0000000000000000e+00  -9.6174653723795685e-03 -9.9147654245214309e-02 0.0000000000000000e+00  -1.7801528125664864e-02 -9.8197426401910454e-02 0.0000000000000000e+00  -1.7569077994390031e-02 -9.6198432463293251e-02 0.0000000000000000e+00  -1.7331369019608550e-02 -9.4203994749595690e-02 0.0000000000000000e+00  -1.7095446749315131e-02 -9.2207370762594013e-02 0.0000000000000000e+00  -1.6861768937573587e-02 -9.0220580792061897e-02 0.0000000000000000e+00  -1.6618287981753448e-02 -8.8230363911563567e-02 0.0000000000000000e+00  -1.6375429253505557e-02 -8.6249075860487356e-02 0.0000000000000000e+00  -1.6127121903195291e-02 -8.4280259537165989e-02 0.0000000000000000e+00  -1.5868116282209722e-02 -8.2316139727680426e-02 0.0000000000000000e+00  -1.5606663311700759e-02 -8.0371125070496624e-02 0.0000000000000000e+00  -1.5328428045983652e-02 -7.8435799312550514e-02 0.0000000000000000e+00  -1.5054753924064593e-02 -7.6516328497099453e-02 0.0000000000000000e+00  -1.4769696027717312e-02 -7.4628081784538502e-02 0.0000000000000000e+00  -1.4460209976689344e-02 -7.2746230112879437e-02 0.0000000000000000e+00  -1.4154460745424431e-02 -7.0883301919553957e-02 0.0000000000000000e+00  -1.3831823170912217e-02 -6.9051447944636482e-02 0.0000000000000000e+00  -1.3492105429171532e-02 -6.7227379300923831e-02 0.0000000000000000e+00  -1.3155870695199934e-02 -6.5428298352077793e-02 0.0000000000000000e+00  -1.2801384617880258e-02 -6.3656929831632098e-02 0.0000000000000000e+00  -1.2441305884627517e-02 -6.1890797057456648e-02 0.0000000000000000e+00  -1.2089632286159002e-02 -6.0153534190744117e-02 0.0000000000000000e+00  -1.1727008386236143e-02 -5.8435433906117731e-02 0.0000000000000000e+00  -1.1370641049178188e-02 -5.6715716647009168e-02 0.0000000000000000e+00  -1.1028374184697811e-02 -5.5018997026957887e-02 0.0000000000000000e+00  -1.0684283465912164e-02 -5.3325639659724144e-02 0.0000000000000000e+00  -1.0350435847624616e-02 -5.1622541178080635e-02 0.0000000000000000e+00  -1.0029476287127640e-02 -4.9928719794184673e-02 0.0000000000000000e+00  -9.7084717707951705e-03 -4.8221281346629237e-02 0.0000000000000000e+00  -9.3945289615963816e-03 -4.6506837656447496e-02 0.0000000000000000e+00  -9.0811700233135485e-03 -4.4785095211379002e-02 0.0000000000000000e+00  -8.7630015741819115e-03 -4.3058249352971117e-02 0.0000000000000000e+00  -8.4424451379278287e-03 -4.1324482915968304e-02 0.0000000000000000e+00  -8.1170264447522067e-03 -3.9592635665040711e-02 0.0000000000000000e+00  -7.7846423328697982e-03 -3.7861213278079259e-02 0.0000000000000000e+00  -7.4504971591101568e-03 -3.6142073778332562e-02 0.0000000000000000e+00  -7.1180674636432953e-03 -3.4438044283475605e-02 0.0000000000000000e+00  -6.7835635828410049e-03 -3.2750698462110400e-02 0.0000000000000000e+00  -6.4557595611432483e-03 -3.1085364470081915e-02 0.0000000000000000e+00  -6.1329101228567275e-03 -2.9443069417503416e-02 0.0000000000000000e+00  -5.8195098905521716e-03 -2.7831630564172986e-02 0.0000000000000000e+00  -5.5215093615330647e-03 -2.6252666698613817e-02 0.0000000000000000e+00  -5.2386397085250674e-03 -2.4697296996219243e-02 0.0000000000000000e+00  -4.9743081672193705e-03 -2.3182092988733225e-02 0.0000000000000000e+00  -4.7073282009110710e-03 -2.1702999120932997e-02 0.0000000000000000e+00  -4.4751331510952267e-03 -2.0267277974675740e-02 0.0000000000000000e+00  -4.2487586231272122e-03 -1.8880098127846145e-02 0.0000000000000000e+00  -4.0520101026473620e-03 -1.7522284371621340e-02 0.0000000000000000e+00  -3.8712815162315361e-03 -1.6214359907515807e-02 0.0000000000000000e+00  -3.7090359888454789e-03 -1.4932301793989662e-02 0.0000000000000000e+00  -3.5604406286626716e-03 -1.3693144031548456e-02 0.0000000000000000e+00  -3.3999637373813242e-03 -1.2483547965178509e-02 0.0000000000000000e+00  -3.2566780391478523e-03 -1.1318221191749448e-02 0.0000000000000000e+00  -3.0946922367159923e-03 -1.0199502092514563e-02 0.0000000000000000e+00  -2.9487821152250106e-03 -9.1242146411877958e-03 0.0000000000000000e+00  -2.7879324876367273e-03 -8.1151628383564593e-03 0.0000000000000000e+00  -2.6186209445426449e-03 -7.1225548186895334e-03 0.0000000000000000e+00  -2.4486663915901027e-03 -6.2078548425834332e-03 0.0000000000000000e+00  -2.2466430946278897e-03 -5.3427634785805107e-03 0.0000000000000000e+00  -2.0619768631577602e-03 -4.5391936966488891e-03 0.0000000000000000e+00  -1.8655269146033778e-03 -3.8153641400261572e-03 0.0000000000000000e+00  -1.6740187689024838e-03 -3.1395886032687449e-03 0.0000000000000000e+00  -1.4856799758417604e-03 -2.5427580954232756e-03 0.0000000000000000e+00  -1.2773499176015892e-03 -2.0004477740230126e-03 0.0000000000000000e+00  -1.1016844723133776e-03 -1.5268942983519989e-03 0.0000000000000000e+00  -9.0629839405471100e-04 -1.1239569381345125e-03 0.0000000000000000e+00  -7.4214191131320229e-04 -7.9610220724433609e-04 0.0000000000000000e+00  -5.6610328768973649e-04 -5.3535838409064275e-04 0.0000000000000000e+00  -4.1238649036670985e-04 -3.1724867287749440e-04 0.0000000000000000e+00  -2.6994768898283404e-04 -1.7134668525282213e-04 0.0000000000000000e+00  -1.3365721226327287e-04 -1.0169291865104781e-04 0.0000000000000000e+00  -1.5991171716494324e-02 -1.0044372908527421e-01 0.0000000000000000e+00  -1.1913372612443426e-02 -1.0092381129552162e-01 0.0000000000000000e+00  1.1549200776756112e-05 -8.4920940425857854e-05 0.0000000000000000e+00  -1.1131674230848604e-02 -7.8039325098397769e-02 0.0000000000000000e+00  -1.2343670623432440e-02 -8.7853362217262157e-02 0.0000000000000000e+00  -4.7772101100206551e-05 -1.0114148875343583e-03 0.0000000000000000e+00  -9.6338375423804853e-03 -6.7082970670125197e-02 0.0000000000000000e+00  -1.0450287953948765e-02 -7.2555592034932018e-02 0.0000000000000000e+00  -3.8856750985031516e-04 -2.6660199547115762e-03 0.0000000000000000e+00  -1.3260225947542167e-02 -9.3671996263230459e-02 0.0000000000000000e+00  -5.3957425364323578e-04 -4.9112475150363492e-03 0.0000000000000000e+00  -6.9105322719697387e-04 -1.0034913891973255e-02 0.0000000000000000e+00  -8.7176017699661223e-03 -6.1772945617455374e-02 0.0000000000000000e+00  -1.0867689560007153e-03 -1.4386227408846604e-02 0.0000000000000000e+00  -7.7403264333733030e-03 -5.6611276722029889e-02 0.0000000000000000e+00  -1.3775185999704515e-03 -1.8517406003981930e-02 0.0000000000000000e+00  -2.0374295780318974e-03 -2.4239777956679809e-02 0.0000000000000000e+00  -6.8725006407573007e-03 -5.1353684402418873e-02 0.0000000000000000e+00  -5.7702626156394187e-03 -4.6219525863810687e-02 0.0000000000000000e+00  -2.6956195751863549e-03 -2.8906601841414459e-02 0.0000000000000000e+00  -3.5984301241880259e-03 -3.4042099002539523e-02 0.0000000000000000e+00  -4.8064438035903155e-03 -4.0754504728830292e-02 0.0000000000000000e+00  -6.6870710028778561e-04 -6.6134342029126247e-03 0.0000000000000000e+00  -1.1851624573666038e-02 -8.3960120942253885e-02 0.0000000000000000e+00  -4.1788263217992427e-03 -3.6997349151652585e-02 0.0000000000000000e+00  -9.4642035986589057e-04 -1.2278195185033366e-02 0.0000000000000000e+00  -1.6623941882945100e-03 -2.1622328081863450e-02 0.0000000000000000e+00  -1.9884534478592836e-04 -1.7757572473485399e-03 0.0000000000000000e+00  -1.4221788419249570e-02 -9.6987710564061400e-02 0.0000000000000000e+00  4.3434883186716968e-05 -4.3210426370821596e-04 0.0000000000000000e+00  -5.4434684552765143e-03 -4.8952402084416376e-02 0.0000000000000000e+00  -7.3676673711792354e-03 -5.9209872336850197e-02 0.0000000000000000e+00  -8.3070366489510286e-03 -6.4433618740764878e-02 0.0000000000000000e+00  -3.0769306420925912e-03 -2.6515060744784838e-02 0.0000000000000000e+00  -6.3939199485491798e-03 -5.4089580130269835e-02 0.0000000000000000e+00  -9.1521640600855051e-03 -6.9817942760270174e-02 0.0000000000000000e+00  -4.5226024299811493e-03 -4.3732260675951456e-02 0.0000000000000000e+00  -9.8963777164463029e-03 -7.5349498609719456e-02 0.0000000000000000e+00  -3.9005641707635197e-03 -3.1412540139368304e-02 0.0000000000000000e+00  -1.8037097351944168e-03 -1.6284516006219388e-02 0.0000000000000000e+00  -7.5141659668807273e-04 -3.8279581036434322e-03 0.0000000000000000e+00  -1.3611633624059047e-02 -9.0571454709662935e-02 0.0000000000000000e+00  -1.2636288805923095e-02 -8.0703186258835422e-02 0.0000000000000000e+00  -1.9386861526660463e-04 -8.1998212779930395e-03 0.0000000000000000e+00  -9.8622820313423246e-03 -8.0283404593167448e-02 0.0000000000000000e+00  -1.5829542522006262e-03 -8.5506943684012012e-03 0.0000000000000000e+00  -1.2405626380094202e-02 -7.5814819434049593e-02 0.0000000000000000e+00  -1.1591277106741177e-02 -7.0235910365352233e-02 0.0000000000000000e+00  -1.0687229441590070e-02 -6.4817120782008478e-02 0.0000000000000000e+00  -1.1217646567331018e-02 -9.1729459961788065e-02 0.0000000000000000e+00  1.3834328228969000e-04 -3.5962978476854869e-03 0.0000000000000000e+00  -8.7029000805006786e-03 -5.4446982809590448e-02 0.0000000000000000e+00  -9.7044150292022284e-03 -5.9569138279782552e-02 0.0000000000000000e+00  -1.0690964148544887e-03 -2.6044781991231277e-02 0.0000000000000000e+00  -1.5832732677733551e-04 -1.5808075920751015e-02 0.0000000000000000e+00  -7.4562106536566900e-03 -4.7815229855466886e-02 0.0000000000000000e+00  -6.7941272084929196e-03 -4.4159021626431080e-02 0.0000000000000000e+00  -1.7681561893150694e-03 -3.0946798368829131e-02 0.0000000000000000e+00  -5.7057305654697271e-05 -2.9946298862924217e-05 0.0000000000000000e+00  4.1408192408030515e-05 -2.5560134140335578e-05 0.0000000000000000e+00  -3.2531700825513673e-03 -3.9576282825227189e-02 0.0000000000000000e+00  -2.5581704182015995e-03 -1.9548691433429948e-02 0.0000000000000000e+00  -1.8089080286641612e-03 -1.0804414735500272e-02 0.0000000000000000e+00  -4.8356009954961151e-04 -1.3080318527420327e-03 0.0000000000000000e+00  -6.9103234926410435e-04 -2.2796678718696142e-03 0.0000000000000000e+00  -2.5774700270511466e-03 -3.6017585231065422e-02 0.0000000000000000e+00  -1.9809411299372155e-03 -1.3057160798192339e-02 0.0000000000000000e+00  -3.0013045113848279e-03 -2.2532413908561470e-02 0.0000000000000000e+00  -1.2934834958947203e-03 -5.9299951566666141e-03 0.0000000000000000e+00  -1.0508494394204827e-02 -8.5626517586136527e-02 0.0000000000000000e+00  -1.3661420718463735e-02 -8.5361229460495347e-02 0.0000000000000000e+00  5.1186405754976853e-05 -5.9541080473125528e-03 0.0000000000000000e+00  -3.0555832835175295e-04 -5.9765714360542391e-04 0.0000000000000000e+00  -1.1374319189342445e-02 -9.5741099101946864e-02 0.0000000000000000e+00  -6.1028699758971404e-03 -3.9095656970896613e-02 0.0000000000000000e+00  -5.2880018884954262e-03 -3.5500620603417965e-02 0.0000000000000000e+00  1.7711555862394665e-04 -1.0827015775984704e-02 0.0000000000000000e+00  2.6229881736536864e-04 -1.3371811227078903e-03 0.0000000000000000e+00  2.7241041587841146e-04 -2.3862556412387209e-03 0.0000000000000000e+00  -2.1926107642473647e-04 -1.9791465767515698e-02 0.0000000000000000e+00  2.3871100024101916e-04 -1.3127476451535211e-02 0.0000000000000000e+00  -2.9910708530621479e-04 -2.2748946374147098e-02 0.0000000000000000e+00  -1.8247323720244985e-04 -3.0203817079744647e-04 0.0000000000000000e+00  -1.2015428595084148e-02 -9.8562288587214691e-02 0.0000000000000000e+00  -1.2289829909157220e-02 -7.3577585754199801e-02 0.0000000000000000e+00  -1.1435320321157721e-02 -6.8057785871530899e-02 0.0000000000000000e+00  1.7016431015204006e-04 -4.4512314056323011e-03 0.0000000000000000e+00  -1.0487699475017365e-02 -6.2706552211675454e-02 0.0000000000000000e+00  -1.0736083716789980e-02 -8.9425318097013332e-02 0.0000000000000000e+00  -9.4837710572645353e-03 -5.7517087793387552e-02 0.0000000000000000e+00  -8.4919794407149300e-03 -5.2429006559738540e-02 0.0000000000000000e+00  -1.1219699980434174e-04 -1.7391123271788683e-02 0.0000000000000000e+00  -7.9924505943007960e-03 -4.9792935978156504e-02 0.0000000000000000e+00  -1.1765453646203257e-03 -2.7960547078648170e-02 0.0000000000000000e+00  -6.5920088608240847e-03 -4.2078886537951575e-02 0.0000000000000000e+00  -1.9269211581724760e-03 -3.2949358934952641e-02 0.0000000000000000e+00  -1.5037635911926065e-02 -9.5002073720602251e-02 0.0000000000000000e+00  -9.8850846978299593e-03 -8.2533066866272001e-02 0.0000000000000000e+00  -1.5832860752701293e-03 -7.3892646646850748e-03 0.0000000000000000e+00  2.3561968016961338e-04 -6.7960610358682762e-04 0.0000000000000000e+00  1.3575892611143251e-04 -2.4492230831742889e-04 0.0000000000000000e+00  -4.2990348486065932e-03 -4.7426747187910796e-02 0.0000000000000000e+00  -4.9269399121204026e-03 -3.2885141846665279e-02 0.0000000000000000e+00  -5.2334736795375996e-03 -5.2598025747484171e-02 0.0000000000000000e+00  -8.0346452215256259e-03 -6.8211760213298459e-02 0.0000000000000000e+00  -6.2317174598654924e-03 -5.7703135876988200e-02 0.0000000000000000e+00  -7.1770601918485265e-03 -6.2883394989278849e-02 0.0000000000000000e+00  -3.8524356779841402e-03 -2.8066234266865740e-02 0.0000000000000000e+00  -3.4534207926077282e-03 -4.2201529048118851e-02 0.0000000000000000e+00  -2.5105044999934245e-03 -1.7514616157563459e-02 0.0000000000000000e+00  -3.5816701876609106e-03 -2.4913375203521833e-02 0.0000000000000000e+00  -9.1909155723138031e-03 -7.7302389569306337e-02 0.0000000000000000e+00  -2.3209020731615381e-03 -1.5007403241853441e-02 0.0000000000000000e+00  -9.0429172125359863e-03 -7.3578068129413560e-02 0.0000000000000000e+00  -1.1871947587503145e-03 -4.4964384438633551e-03 0.0000000000000000e+00  -9.7176675044785272e-04 -3.1574208430347511e-03 0.0000000000000000e+00  -1.4751412580667495e-02 -9.2237278282268423e-02 0.0000000000000000e+00  -1.4365795280655408e-02 -8.8541900576362645e-02 0.0000000000000000e+00  -8.1299768060274953e-03 -6.6379516141780046e-02 0.0000000000000000e+00  -7.2317778357539443e-03 -6.1103278341340890e-02 0.0000000000000000e+00  -5.2049327990100229e-03 -5.0792019867448822e-02 0.0000000000000000e+00  -8.8267135113534317e-03 -7.1773925536210356e-02 0.0000000000000000e+00  -6.2683190623555709e-03 -5.5958191256230423e-02 0.0000000000000000e+00  -4.2487332292569738e-03 -4.5603205145829842e-02 0.0000000000000000e+00  -4.1089133712463284e-03 -2.9659454075483684e-02 0.0000000000000000e+00  1.8483869446060992e-04 -7.3017708814303445e-03 0.0000000000000000e+00  -1.3618067130152942e-02 -8.2450863790676718e-02 0.0000000000000000e+00  -1.3087195024717299e-02 -7.8794678282592109e-02 0.0000000000000000e+00  1.4436632070