<?xml version="1.0"?>
<VTKFile type="UnstructuredGrid"  version="0.1"  >
<UnstructuredGrid>
<Piece  NumberOfPoints="439" NumberOfCells="725">
<Points>
<DataArray  type="Float64"  NumberOfComponents="3"  format="ascii">0.6000112003481102 0.188371856778986 0  0.599994273927689 0.2083718633430248 0  0.2489897949 0.21 0  0.2489897949 0.19 0  0.6000027360546791 0.198371856407586 0  0.2496355385699469 0.2060260530378829 0  0.249959460510575 0.2020130349814059 0  0.2499594605105767 0.1979869650186357 0  0.24963553856995 0.1939739469621422 0  0.2539474026715281 0.2099871013369773 0  0.2589052411894746 0.2099733447884389 0  0.2638624158630051 0.209956222015364 0  0.2688181792969714 0.2099297476431197 0  0.2737724928625407 0.2098988650788128 0  0.2787264942219287 0.2098616059333355 0  0.283678841723368 0.2098217080683791 0  0.2886296210580832 0.2097769584716799 0  0.2935797543713728 0.2097289234556746 0  0.2985287851436897 0.209678055793098 0  0.303477343282313 0.2096240527753161 0  0.3084252704660977 0.2095697701772634 0  0.3133716630698687 0.2095127384733553 0  0.318317809500333 0.2094549428174751 0  0.3232627875969432 0.2093965004982235 0  0.3282070973584522 0.2093378559167861 0  0.3331506928331032 0.2092792116051219 0  0.3380936221235255 0.2092209992267465 0  0.3430361422852933 0.2091634880191047 0  0.3479780550129733 0.2091070186070984 0  0.3529196103242884 0.2090515828018588 0  0.3578609087395844 0.2089975839466572 0  0.3628013501822869 0.2089460790608152 0  0.3677414363608585 0.2088951194079044 0  0.372681427577464 0.208846907499857 0  0.3776214527588128 0.2088002609270884 0  0.3825611460940139 0.2087560963570637 0  0.3875008061258625 0.2087139459617086 0  0.3924406164602543 0.2086739718514339 0  0.3973797508228935 0.2086374608000078 0  0.4023187502211383 0.208601367091649 0  0.4072584024849252 0.2085687524904044 0  0.4121976786850668 0.2085389782779472 0  0.4171369058966491 0.2085099110951696 0  0.4220767316228133 0.2084842787433071 0  0.4270159027384327 0.208460256258611 0  0.4319559007322301 0.2084385104932206 0  0.4368952960486113 0.2084190477976718 0  0.4418354531037745 0.208401177494918 0  0.4467757743716688 0.2083855204016044 0  0.4517160099783945 0.2083714023729183 0  0.4566563049635521 0.2083590829758176 0  0.4615971292218143 0.2083484687617135 0  0.4665378680246305 0.2083391873925016 0  0.4714787258649909 0.2083314808533047 0  0.4764200462471784 0.2083251917057451 0  0.4813613924012435 0.2083199967346981 0  0.486302863427755 0.2083160816500068 0  0.4912447174378984 0.2083132120514738 0  0.4961866218886894 0.2083111930601823 0  0.5011286484644382 0.2083101465466659 0  0.5060709871195272 0.2083098901838442 0  0.5110133887582478 0.208310253203481 0  0.5159559110377934 0.2083113262018658 0  0.5208986817595088 0.2083129501056158 0  0.5258414927917971 0.2083150128055913 0  0.5307844187827404 0.2083175462720278 0  0.5357275027243358 0.2083204415223088 0  0.5406707268834363 0.2083236054040024 0  0.5456140714994737 0.2083270733065257 0  0.5505574722659645 0.2083307789679442 0  0.5555009137558495 0.2083345216107164 0  0.5604444665271906 0.208338495128999 0  0.5653880332813986 0.2083425453216868 0  0.5703316859281027 0.2083466598374267 0  0.5752753882939567 0.2083508482295393 0  0.5802191178471424 0.2083550402256742 0  0.5851628856882658 0.2083592528220039 0  0.5901066715677322 0.2083634709160969 0  0.595050468985619 0.2083676685825785 0  0.5950673919769055 0.1883676656788971 0  0.5901235755736899 0.1883634650832914 0  0.5851797496345265 0.1883592506481498 0  0.5802359009938566 0.1883550351976097 0  0.5752920265890978 0.1883508394637711 0  0.5703481203325659 0.1883466508054502 0  0.5654041624664087 0.1883425325485559 0  0.5604601243907786 0.1883384849743986 0  0.5555160654774388 0.1883345093280968 0  0.5505719102957775 0.1883307146010407 0  0.5456276840870838 0.1883270227922595 0  0.5406834147591629 0.1883235951949769 0  0.5357389941385003 0.1883205033231816 0  0.5307944653321761 0.1883174858010175 0  0.5258498928081593 0.1883149699109557 0  0.5209050941937194 0.1883130262231576 0  0.5159601610892308 0.1883112219328548 0  0.5110152265593133 0.1883102033841481 0  0.5060699917357913 0.1883100016000085 0  0.5011245874342736 0.1883100041216271 0  0.4961792213665676 0.1883111281031876 0  0.4912334795401562 0.1883133712927819 0  0.4862875351924508 0.188315893749197 0  0.4813416870711031 0.1883199162990116 0  0.4763953770695831 0.1883254191639183 0  0.471448844908797 0.1883314518291892 0  0.4665023108954456 0.1883391062429033 0  0.4615553298898474 0.1883487225433422 0  0.4566082622364637 0.1883587287548976 0  0.4516615205419702 0.1883710334121521 0  0.4467139632957353 0.1883857491545673 0  0.4417661737232159 0.1884010084224716 0  0.4368184533677394 0.188419008140608 0  0.4318708361196279 0.1884383755009164 0  0.4269230050869511 0.1884599565936519 0  0.4219752159430543 0.1884842021005881 0  0.4170268353970341 0.1885098565535673 0  0.4120786569909064 0.1885381782704332 0  0.4071300766200131 0.1885685741762164 0  0.4021813047396131 0.1886014100813897 0  0.3972327002396471 0.1886367344005647 0  0.392284614728417 0.1886739908767757 0  0.3873366040077597 0.1887138503425342 0  0.3823877330773668 0.1887555038582681 0  0.3774398332386392 0.1887997220413588 0  0.3724913708851447 0.1888463593782351 0  0.3675437530729318 0.1888946935805757 0  0.3625960949674369 0.188945290462227 0  0.3576490964267071 0.1889973443296244 0  0.3527024556825665 0.1890512757835842 0  0.3477556208606182 0.1891064512772437 0  0.3428097678099057 0.1891628891783521 0  0.3378641721744164 0.1892206012772487 0  0.3329193843444855 0.1892788488293019 0  0.3279752699953579 0.1893375252441418 0  0.3230316288976065 0.1893961650856185 0  0.3180887982794174 0.1894546859817114 0  0.3131471417522798 0.1895125436195353 0  0.3082058069125062 0.1895694420637828 0  0.3032656000681453 0.189624356903989 0  0.2983260854956167 0.1896779251371832 0  0.2933874684437019 0.1897286682814298 0  0.288450733790552 0.1897772663872885 0  0.283513761841705 0.1898219161287238 0  0.2785793791655431 0.1898630936308067 0  0.2736448873827682 0.1898984623457464 0  0.2687130894947173 0.1899290722479241 0  0.2637809962057697 0.1899554545603276 0  0.2588496716463703 0.1899749078636232 0  0.253919406492256 0.1899862929171135 0  0.6000069644993635 0.1933718565880926 0  0.5999985090856346 0.2033718594031305 0  0.258975065861035 0.2005366980190604 0  0.5431490080657065 0.1983249756647892 0  0.5682425490275493 0.1983152581208506 0  0.2774564491439413 0.200672652191118 0  0.5138523916832979 0.198212289348954 0  0.5286838064415018 0.1982181840322067 0  0.2945040995697792 0.1990139109789839 0  0.5827811976562857 0.1979001641407985 0  0.3104126783084711 0.1995180572437144 0  0.3370104036541186 0.2000609716055671 0  0.4990209564719694 0.1982116597103585 0  0.3552828906313475 0.1990224949766032 0  0.4841895065729345 0.1982184195086888 0  0.3707392878660072 0.1988757197144335 0  0.3898903626843609 0.1986909247644905 0  0.468987847753511 0.1978748107079529 0  0.4541605202416782 0.1983628552124065 0  0.4043565767550772 0.1986817322319239 0  0.4195537442371438 0.1984936464099685 0  0.438704700840174 0.1983949308680071 0  0.3202476681412945 0.1994404914599348 0  0.5584080961841535 0.1983277479335261 0  0.4280685783290272 0.1983012598584976 0  0.3467687787948867 0.1992688228897469 0  0.3813760256679113 0.1989136822784839 0  0.286068234803335 0.1998454033441824 0  0.5911265971355401 0.1966092293703861 0  0.2679970754991163 0.2016171158865823 0  0.4615809871834075 0.2005967642844893 0  0.4912404283897753 0.2005622940371278 0  0.5060706636100312 0.2005592943884567 0  0.3972897975500505 0.1963834887070438 0  0.4764105250875324 0.2005738988706896 0  0.5209012164494525 0.2005626410387784 0  0.4467519155742113 0.2006334894667901 0  0.5357320366605808 0.2005703867726052 0  0.4121244876558884 0.1962850963969779 0  0.3626759379168563 0.1966928636585974 0  0.303348335263917 0.1973767474146666 0  0.5752855599564891 0.1961004107316351 0  0.550464644401896 0.1954588702639733 0  0.3282262020870868 0.2022080536799372 0  0.5484179800052372 0.2021692217450378 0  0.3301911750356944 0.1954717425336042 0  0.5379260950231819 0.1944466366614348 0  0.5230937315092705 0.1944383882230714 0  0.5082609357952559 0.1944342911404795 0  0.5774710548856249 0.2022274688741187 0  0.3012212158360609 0.2035258406401663 0  0.4785936594968394 0.1944464638492182 0  0.493427605132935 0.1944362303780242 0  0.3951446318333778 0.2025253150314301 0  0.3605481364664695 0.2028413258955769 0  0.4593772057778671 0.194476289962859 0  0.4489236726535786 0.1945020127735384 0  0.4099709665848325 0.2024237363409278 0  0.2557804532800897 0.1960782457747009 0  0.2550193337084199 0.2034366139301325 0  0.434821237456417 0.2021981252732906 0  0.3746030710118857 0.1950506847067814 0  0.3405819661118273 0.1952357118599755 0  0.2812695788257152 0.1958928842738301 0  0.2912329445783537 0.1958362460526255 0  0.4246925160571631 0.2024220788977181 0  0.3501199394789034 0.1951260705377871 0  0.3847373736453295 0.1947801408528989 0  0.3165892777642316 0.1956337693394729 0  0.5621547590035025 0.2021213869637543 0  0.5624472233911846 0.1944161641321247 0  0.3162832195307347 0.2033470107942884 0  0.2710648582308173 0.1958911325912396 0  0.5873001954800986 0.2030838495673125 0  0.4346524248860388 0.193890265191737 0  0.4243120843788474 0.1943458079102904 0  0.340311156279364 0.2039875573078991 0  0.2809046945142805 0.2046234292606071 0  0.2914517897423632 0.2045336568000987 0  0.3748153773269931 0.2033584193700006 0  0.3499795589181808 0.2042579557231594 0  0.3845742164876108 0.2039116103294631 0  0.264798769609165 0.1961656745228546 0  0.5943240840980398 0.2024085845628792 0  0.5321022527681731 0.193962396698633 0  0.51726964047985 0.1939556080147774 0  0.3070390441461465 0.2039330430900066 0  0.502436491238635 0.1939536647952619 0  0.5716594844478899 0.2026945197863527 0  0.4876027099479632 0.1939586042539088 0  0.4728117954297213 0.1939684501904647 0  0.3663754066396483 0.20327376
[...]
<PointData  Vectors="d"> 
<DataArray  type="Float64"  Name="d"  NumberOfComponents="3" format="ascii">1.1200348110227048e-05 -1.6281432210139724e-03 0.0000000000000000e+00  -5.7260723109562831e-06 -1.6281366569752093e-03 0.0000000000000000e+00  0.0000000000000000e+00 0.0000000000000000e+00 0.0000000000000000e+00  0.0000000000000000e+00 0.0000000000000000e+00 0.0000000000000000e+00  2.7360546791686751e-06 -1.6281435924139836e-03 0.0000000000000000e+00  0.0000000000000000e+00 0.0000000000000000e+00 0.0000000000000000e+00  0.0000000000000000e+00 0.0000000000000000e+00 0.0000000000000000e+00  0.0000000000000000e+00 0.0000000000000000e+00 0.0000000000000000e+00  0.0000000000000000e+00 0.0000000000000000e+00 0.0000000000000000e+00  1.3802065898828714e-05 -1.2898663022726378e-05 0.0000000000000000e+00  2.7834878220420060e-05 -2.6655211561111692e-05 0.0000000000000000e+00  4.1203846112963593e-05 -4.3777984635984737e-05 0.0000000000000000e+00  5.3161574441401573e-05 -7.0252356880295502e-05 0.0000000000000000e+00  6.3669434383783815e-05 -1.0113492118725030e-04 0.0000000000000000e+00  7.3865088153346979e-05 -1.3839406666446834e-04 0.0000000000000000e+00  8.2406883974380291e-05 -1.7829193162084697e-04 0.0000000000000000e+00  8.9380513066591845e-05 -2.2304152832006139e-04 0.0000000000000000e+00  9.5708120720620430e-05 -2.7107654432542255e-04 0.0000000000000000e+00  1.0093318741891084e-04 -3.2194420690196031e-04 0.0000000000000000e+00  1.0568562041331342e-04 -3.7594722468386929e-04 0.0000000000000000e+00  1.0980709857959585e-04 -4.3022982273655685e-04 0.0000000000000000e+00  1.1239399673216221e-04 -4.8726152664467899e-04 0.0000000000000000e+00  1.1473472157809443e-04 -5.4505718252491255e-04 0.0000000000000000e+00  1.1590711257004053e-04 -6.0349950177650453e-04 0.0000000000000000e+00  1.1641116846051552e-04 -6.6214408321384687e-04 0.0000000000000000e+00  1.1620093748241871e-04 -7.2078839487805027e-04 0.0000000000000000e+00  1.1532452229705814e-04 -7.7900077325347694e-04 0.0000000000000000e+00  1.1403897843578967e-04 -8.3651198089525734e-04 0.0000000000000000e+00  1.1214600049731261e-04 -8.9298139290155281e-04 0.0000000000000000e+00  1.0989560619395472e-04 -9.4841719814120322e-04 0.0000000000000000e+00  1.0738831587167308e-04 -1.0024160533428598e-03 0.0000000000000000e+00  1.0402405295576230e-04 -1.0539209391847908e-03 0.0000000000000000e+00  1.0030452590908261e-04 -1.1048805920956253e-03 0.0000000000000000e+00  9.6490036885201483e-05 -1.1530925001430492e-03 0.0000000000000000e+00  9.2709512625067106e-05 -1.1997390729115349e-03 0.0000000000000000e+00  8.8597142201941539e-05 -1.2439036429362786e-03 0.0000000000000000e+00  8.4451468428744248e-05 -1.2860540382913267e-03 0.0000000000000000e+00  8.0456097191207546e-05 -1.3260281485660934e-03 0.0000000000000000e+00  7.5784754222908525e-05 -1.3625391999922097e-03 0.0000000000000000e+00  7.0978446839767536e-05 -1.3986329083510217e-03 0.0000000000000000e+00  6.6825005014489093e-05 -1.4312475095955631e-03 0.0000000000000000e+00  6.2295499535723278e-05 -1.4610217220528299e-03 0.0000000000000000e+00  5.7717005497244400e-05 -1.4900889048303559e-03 0.0000000000000000e+00  5.3737026049697132e-05 -1.5157212566928814e-03 0.0000000000000000e+00  4.9102436040911323e-05 -1.5397437413890210e-03 0.0000000000000000e+00  4.5294724204811256e-05 -1.5614895067794295e-03 0.0000000000000000e+00  4.0884334933993731e-05 -1.5809522023281727e-03 0.0000000000000000e+00  3.7235684441590892e-05 -1.5988225050820228e-03 0.0000000000000000e+00  3.3751246672073083e-05 -1.6144795983956297e-03 0.0000000000000000e+00  3.0181147749983422e-05 -1.6285976270817358e-03 0.0000000000000000e+00  2.6670427265721515e-05 -1.6409170241824509e-03 0.0000000000000000e+00  2.3688979898375489e-05 -1.6515312382864797e-03 0.0000000000000000e+00  2.0622077064006767e-05 -1.6608126074983982e-03 0.0000000000000000e+00  1.7674211791151996e-05 -1.6685191466953367e-03 0.0000000000000000e+00  1.5188888311575986e-05 -1.6748082942548753e-03 0.0000000000000000e+00  1.2729336730102031e-05 -1.6800032653018851e-03 0.0000000000000000e+00  1.0394657579002464e-05 -1.6839183499931867e-03 0.0000000000000000e+00  8.4429620918369059e-06 -1.6867879485261911e-03 0.0000000000000000e+00  6.5417072283923744e-06 -1.6888069398177366e-03 0.0000000000000000e+00  4.7625773485112483e-06 -1.6898534533340696e-03 0.0000000000000000e+00  3.2955267779720924e-06 -1.6901098161558219e-03 0.0000000000000000e+00  1.8914598604693161e-06 -1.6897467965189658e-03 0.0000000000000000e+00  6.0803378976432749e-07 -1.6886737981341420e-03 0.0000000000000000e+00  -4.2695013273831648e-07 -1.6870498943841483e-03 0.0000000000000000e+00  -1.4216235029707900e-06 -1.6849871944087304e-03 0.0000000000000000e+00  -2.3013381986207237e-06 -1.6824537279721509e-03 0.0000000000000000e+00  -3.0231022629110566e-06 -1.6795584776911944e-03 0.0000000000000000e+00  -3.6046488002962910e-06 -1.6763945959975659e-03 0.0000000000000000e+00  -4.0657383792393998e-06 -1.6729266934742623e-03 0.0000000000000000e+00  -4.4706775263009959e-06 -1.6692210320557901e-03 0.0000000000000000e+00  -4.8348932961191482e-06 -1.6654783892835470e-03 0.0000000000000000e+00  -5.0878275978312627e-06 -1.6615048710010010e-03 0.0000000000000000e+00  -5.3267790494741869e-06 -1.6574546783131546e-03 0.0000000000000000e+00  -5.4798380088942426e-06 -1.6533401625732770e-03 0.0000000000000000e+00  -5.5831777890849752e-06 -1.6491517704606727e-03 0.0000000000000000e+00  -5.6593302409311092e-06 -1.6449597743258232e-03 0.0000000000000000e+00  -5.6971947683091686e-06 -1.6407471779960933e-03 0.0000000000000000e+00  -5.7170209486098237e-06 -1.6365290839031195e-03 0.0000000000000000e+00  -5.7253087214402825e-06 -1.6323314174215438e-03 0.0000000000000000e+00  1.1197682522289387e-05 -1.6323343211029028e-03 0.0000000000000000e+00  1.1186984931821366e-05 -1.6365349167085830e-03 0.0000000000000000e+00  1.1166751407054001e-05 -1.6407493518502407e-03 0.0000000000000000e+00  1.1123816383886708e-05 -1.6449648023903305e-03 0.0000000000000000e+00  1.1055117246426562e-05 -1.6491605362288528e-03 0.0000000000000000e+00  1.0954566334987984e-05 -1.6533491945498178e-03 0.0000000000000000e+00  1.0802405790655228e-05 -1.6574674514440596e-03 0.0000000000000000e+00  1.0570035789809252e-05 -1.6615150256014397e-03 0.0000000000000000e+00  1.0316828080751772e-05 -1.6654906719032283e-03 0.0000000000000000e+00  9.9673520740000619e-06 -1.6692853989593141e-03 0.0000000000000000e+00  9.5468489796609997e-06 -1.6729772077405166e-03 0.0000000000000000e+00  9.0832266579486618e-06 -1.6764048050231248e-03 0.0000000000000000e+00  8.4683116042235702e-06 -1.6794966768183628e-03 0.0000000000000000e+00  7.7452109130977773e-06 -1.6825141989825685e-03 0.0000000000000000e+00  6.9783924965045223e-06 -1.6850300890442862e-03 0.0000000000000000e+00  5.9854836950036189e-06 -1.6869737768424359e-03 0.0000000000000000e+00  4.8580848089989645e-06 -1.6887780671451932e-03 0.0000000000000000e+00  3.7292604906530959e-06 -1.6897966158519232e-03 0.0000000000000000e+00  2.3001425735878425e-06 -1.6899983999915005e-03 0.0000000000000000e+00  7.0154669294328093e-07 -1.6899958783728993e-03 0.0000000000000000e+00  -8.5881540441835816e-07 -1.6888718968123371e-03 0.0000000000000000e+00  -2.7949361969549074e-06 -1.6866287072181373e-03 0.0000000000000000e+00  -4.9335782835318450e-06 -1.6841062508029590e-03 0.0000000000000000e+00  -6.9759940014580546e-06 -1.6800837009883971e-03 0.0000000000000000e+00  -9.4802899135028782e-06 -1.6745808360817264e-03 0.0000000000000000e+00  -1.2206745071296111e-05 -1.6685481708107995e-03 0.0000000000000000e+00  -1.4935052809829721e-05 -1.6608937570967422e-03 0.0000000000000000e+00  -1.8110352787515754e-05 -1.6512774566577618e-03 0.0000000000000000e+00  -2.1372300546742961e-05 -1.6412712451024209e-03 0.0000000000000000e+00  -2.4308289410574029e-05 -1.6289665878479250e-03 0.0000000000000000e+00  -2.8059830036317246e-05 -1.6142508454326746e-03 0.0000000000000000e+00  -3.2043696930607664e-05 -1.5989915775284174e-03 0.0000000000000000e+00  -3.5958346790294157e-05 -1.5809918593920334e-03 0.0000000000000000e+00  -3.9769889285238653e-05 -1.5616244990835680e-03 0.0000000000000000e+00  -4.3795216335525154e-05 -1.5400434063480813e-03 0.0000000000000000e+00  -4.7778654593859297e-05 -1.5157978994118787e-03 0.0000000000000000e+00  -5.2353494971566567e-05 -1.4901434464327039e-03 0.0000000000000000e+00  -5.6726195453001167e-05 -1.4618217295667740e-03 0.0000000000000000e+00  -6.1500860686400138e-05 -1.4314258237835421e-03 0.0000000000000000e+00  -6.6467035434689185e-05 -1.3985899186103080e-03 0.0000000000000000e+00  -7.1265829742990614e-05 -1.3632655994353384e-03 0.0000000000000000e+00  -7.5545635337824637e-05 -1.3260091232242771e-03 0.0000000000000000e+00  -7.9750650348543817e-05 -1.2861496574657996e-03 0.0000000000000000e+00  -8.4815875115550236e-05 -1.2444961417319262e-03 0.0000000000000000e+00  -8.8910008186610543e-05 -1.2002779586411888e-03 0.0000000000000000e+00  -9.3566656032563443e-05 -1.1536406217648870e-03 0.0000000000000000e+00  -9.7378762576727325e-05 -1.1053064194242910e-03 0.0000000000000000e+00  -1.0123116242444096e-04 -1.0547095377729970e-03 0.0000000000000000e+00  -1.0442399750374067e-04 -1.0026556703756401e-03 0.0000000000000000e+00  -1.0725903602256595e-04 -9.4872421641583433e-04 0.0000000000000000e+00  -1.1028815231277901e-04 -8.9354872275630476e-04 0.0000000000000000e+00  -1.1233549738629609e-04 -8.3711082164791102e-04 0.0000000000000000e+00  -1.1412542723716052e-04 -7.7939872275129647e-04 0.0000000000000000e+00  -1.1510755152969180e-04 -7.2115117069808192e-04 0.0000000000000000e+00  -1.1541619501725975e-04 -6.6247475585823508e-04 0.0000000000000000e+00  -1.1525158711058805e-04 -6.0383491438147313e-04 0.0000000000000000e+00  -1.1427649964170564e-04 -5.4531401828856671e-04 0.0000000000000000e+00  -1.1212732112138143e-04 -4.8745638046475897e-04 0.0000000000000000e+00  -1.0965645525192754e-04 -4.3055793621722888e-04 0.0000000000000000e+00  -1.0605759397433783e-04 -3.7564309601102969e-04 0.0000000000000000e+00  -1.0176646086456793e-04 -3.2207486281676697e-04 0.0000000000000000e+00  -9.6577807141042175e-05 -2.7133171857022419e-04 0.0000000000000000e+00  -8.9506754635362167e-05 -2.2273361271149363e-04 0.0000000000000000e+00  -8.2672997824474465e-05 -1.7808387127625730e-04 0.0000000000000000e+00  -7.3249968328560351e-05 -1.3690636919327774e-04 0.0000000000000000e+00  -6.3936045456134102e-05 -1.0153765425362389e-04 0.0000000000000000e+00  -5.1928227868644406e-05 -7.0927752075897375e-05 0.0000000000000000e+00  -4.0215811177925293e-05 -4.4545439672411510e-05 0.0000000000000000e+00  -2.7734664938946822e-05 -2.5092136376762195e-05 0.0000000000000000e+00  -1.4194113401857659e-05 -1.3707082886456024e-05 0.0000000000000000e+00  6.9644993634798623e-06 -1.6281434118857099e-03 0.0000000000000000e+00  -1.4909143654064120e-06 -1.6281405968423446e-03 0.0000000000000000e+00  1.6393293857167742e-06 -1.5691323779916899e-05 0.0000000000000000e+00  2.7736803987730180e-06 -1.6750243351798463e-03 0.0000000000000000e+00  2.7595507331210551e-06 -1.6552004600481486e-03 0.0000000000000000e+00  5.0564321388979277e-06 -1.2153975107459426e-04 0.0000000000000000e+00  2.8083064009041329e-06 -1.6900533001379108e-03 0.0000000000000000e+00  2.8059477637007349e-06 -1.6841586168902050e-03 0.0000000000000000e+00  -6.7956359854562469e-06 -2.7727986155474303e-04 0.0000000000000000e+00  3.1145177930682836e-06 -1.6428159595363999e-03 0.0000000000000000e+00  -1.6134845444527532e-07 -4.5240133718340512e-04 0.0000000000000000e+00  1.0228112263532310e-05 -7.6848963782961564e-04 0.0000000000000000e+00  2.7902119235149424e-06 -1.6906829387317121e-03 0.0000000000000000e+00  1.2730604431886229e-06 -9.7750502345755300e-04 0.0000000000000000e+00  2.7574297419962415e-06 -1.6839231403961118e-03 0.0000000000000000e+00  1.9164754520467495e-06 -1.1385179809354402e-03 0.0000000000000000e+00  2.1051741114063547e-06 -1.3090752355922482e-03 0.0000000000000000e+00  2.0927042375566035e-06 -1.6668617177164953e-03 0.0000000000000000e+00  2.7885574814867027e-06 -1.6371447875032721e-03 0.0000000000000000e+00  3.0853532440756921e-06 -1.4159251190005552e-03 0.0000000000000000e+00  2.6524931868959581e-06 -1.5063535901372457e-03 0.0000000000000000e+00  2.7229757228442858e-06 -1.5908314366701321e-03 0.0000000000000000e+00  3.9311562419257926e-07 -5.6839275470515148e-04 0.0000000000000000e+00  2.7420760684296142e-06 -1.6633678518316120e-03 0.0000000000000000e+00  1.8636403137904696e-06 -1.5476449623265263e-03 0.0000000000000000e+00  2.7841683393236089e-06 -8.8227228969059912e-04 0.0000000000000000e+00  3.3911020205416205e-06 -1.2374129009680608e-03 0.0000000000000000e+00  -1.0288887482747393e-07 -1.9614122643575780e-04 0.0000000000000000e+00  4.2159574205397481e-06 -1.6356865644883355e-03 0.0000000000000000e+00  7.7593532535692438e-06 -5.8009760146646325e-05 0.0000000000000000e+00  7.5469407796319886e-06 -1.6535990443109938e-03 0.0000000000000000e+00  4.1539134299647651e-06 -1.6880692916813338e-03 0.0000000000000000e+00  2.9720168328350942e-06 -1.6910689403550948e-03 0.0000000000000000e+00  -1.4168518626891838e-05 -1.3661479641527145e-03 0.0000000000000000e+00  5.6677280427550840e-06 -1.6764644581155135e-03 0.0000000000000000e+00  2.1077394069885550e-06 -1.6877222900400198e-03 0.0000000000000000e+00  9.8924484457655931e-06 -1.6168738620098860e-03 0.0000000000000000e+00  1.5108336959850982e-06 -1.6799765562145880e-03 0.0000000000000000e+00  -1.0895529643243983e-05 -1.4645402742196638e-03 0.0000000000000000e+00  -2.1388212478857635e-05 -1.0567730125945144e-03 0.0000000000000000e+00  -2.3322397979166571e-05 -3.7288925652027339e-04 0.0000000000000000e+00  4.5884846662085948e-06 -1.6492259395151938e-03 0.0000000000000000e+00  4.7884828399652924e-06 -1.6696082097933445e-03 0.0000000000000000e+00  3.3428872402717564e-05 -6.6346784630337888e-04 0.0000000000000000e+00  7.7955491112899030e-08 -1.6710998244385243e-03 0.0000000000000000e+00  -4.3552048304405769e-05 -6.8793589694491817e-04 0.0000000000000000e+00  5.0097993705430302e-06 -1.6785450029762178e-03 0.0000000000000000e+00  4.0634023052422829e-06 -1.6867934413344076e-03 0.0000000000000000e+00  2.6848051337154231e-06 -1.6908905239302657e-03 0.0000000000000000e+00  -4.7598308455531985e-07 -1.6473494614699616e-03 0.0000000000000000e+00  4.0117571106109888e-05 -3.4897769542744143e-04 0.0000000000000000e+00  -1.7572595717390590e-06 -1.6787178151858031e-03 0.0000000000000000e+00  7.7125966791339390e-07 -1.6889512863821226e-03 0.0000000000000000e+00  3.1225161614821020e-05 -1.3495033041664695e-03 0.0000000000000000e+00  4.1369734057748590e-05 -1.0334924400181649e-03 0.0000000000000000e+00  -5.6750678474925963e-06 -1.6488917015403065e-03 0.0000000000000000e+00  -8.9098691019197673e-06 -1.6231688908622632e-03 0.0000000000000000e+00  2.6142796210521808e-05 -1.4510819946713207e-03 0.0000000000000000e+00  -5.8467001073842683e-06 -7.5912510285838355e-06 0.0000000000000000e+00  4.5976774801036494e-06 -6.0290689788784006e-06 0.0000000000000000e+00  1.8089809948159451e-05 -1.5756324908647794e-03 0.0000000000000000e+00  -3.3130596524287692e-05 -1.1755575290739088e-03 0.0000000000000000e+00  -4.3870474603115385e-05 -8.1108033401346483e-04 0.0000000000000000e+00  -3.0589293268168357e-05 -1.5390792022009208e-04 0.0000000000000000e+00  -3.5694165635540949e-05 -2.4538681230265840e-04 0.0000000000000000e+00  2.1982475173932469e-05 -1.5311289082363011e-03 0.0000000000000000e+00  -4.2236254009528004e-05 -9.2072165640067437e-04 0.0000000000000000e+00  -3.1442026939923675e-05 -1.2666513413370341e-03 0.0000000000000000e+00  -4.3090774124433578e-05 -5.2568922389717172e-04 0.0000000000000000e+00  -2.4210183834730932e-07 -1.6602622961448361e-03 0.0000000000000000e+00  5.8356892076407857e-06 -1.6600282290130002e-03 0.0000000000000000e+00  4.3715947421848071e-05 -5.2094494818079979e-04 0.0000000000000000e+00  -2.3855189944926766e-05 -7.8511741344167987e-05 0.0000000000000000e+00  -1.2421602617519316e-06 -1.6389385357698566e-03 0.0000000000000000e+00  -1.5531758232136062e-05 -1.5748807635143195e-03 0.0000000000000000e+00  -1.7566028951195280e-05 -1.5298901836158284e-03 0.0000000000000000e+00  5.5205196011690844e-05 -8.0649272119317518e-04 0.0000000000000000e+00  3.6201838187177375e-05 -1.5081252065851761e-04 0.0000000000000000e+00  4.4086428490959943e-05 -2.4729490699679040e-04 0.0000000000000000e+00  4.3984716499901278e-05 -1.1764346748547694e-03 0.0000000000000000e+00  5.7910028294156439e-05 -9.1738559547115063e-04 0.0000000000000000e+00  4.5927658381015182e-05 -1.2637309891729326e-03 0.0000000000000000e+00  -1.5716936340225315e-05 -4.3299775782804689e-05 0.0000000000000000e+00  -6.8026824969169112e-07 -1.6329577960390088e-03 0.0000000000000000e+00  4.9917225586047238e-06 -1.6821132064542249e-03 0.0000000000000000e+00  3.7965510773003169e-06 -1.6889018903080094e-03 0.0000000000000000e+00  4.6718585880732068e-05 -4.1376029724853974e-04 0.0000000000000000e+00  2.0644267084929914e-06 -1.6908451098245269e-03 0.0000000000000000e+00  -8.1912554520964112e-07 -1.6522836009234469e-03 0.0000000000000000e+00  -2.9974711088341483e-07 -1.6859056511743398e-03 0.0000000000000000e+00  -3.4020999049493665e-06 -1.6717967005246933e-03 0.0000000000000000e+00  4.5228986894531640e-05 -1.0936885418072406e-03 0.0000000000000000e+00  -5.4665709604063251e-06 -1.6600622079342799e-03 0.0000000000000000e+00  3.3058003609077908e-05 -1.3917379126449224e-03 0.0000000000000000e+00  -1.1827669806593381e-05 -1.6052012341279337e-03 0.0000000000000000e+00  2.7170449814476810e-05 -1.4849003135345457e-03 0.0000000000000000e+00  6.3602069857875449e-06 -1.6396232581435191e-03 0.0000000000000000e+00  -5.2813569606483282e-07 -1.6667032421510042e-03 0.0000000000000000e+00  -5.0468792990795409e-05 -6.1936430756175586e-04 0.0000000000000000e+00  2.8872965240715265e-05 -8.3937504587025083e-05 0.0000000000000000e+00  1.5708404029315012e-05 -3.4971332611311921e-05 0.0000000000000000e+00  1.4099536274202667e-05 -1.6430785840750651e-03 0.0000000000000000e+00  -2.2451872619511815e-05 -1.4905755777765925e-03 0.0000000000000000e+00  9.8640739896375360e-06 -1.6702146658427815e-03 0.0000000000000000e+00  1.8786322079303695e-06 -1.6892621951284596e-03 0.0000000000000000e+00  6.3880046781472506e-06 -1.6851827987431130e-03 0.0000000000000000e+00  3.8006004727251548e-06 -1.6907495180426950e-03 0.0000000000000000e+00  -2.4012025698301390e-05 -1.4014226799685990e-03 0.0000000000000000e+00  1.8314667599455509e-05 -1.6017482131066877e-03 0.0000000000000000e+00  -4.2101302236941606e-05 -1.1045559479535855e-03 0.0000000000000000e+00  -3.4090797904522348e-05 -1.3294586028539009e-03 0.0000000000000000e+00  -1.0575786986716611e-07 -1.6767763976000508e-03 0.0000000000000000e+00  -4.7725769900190429e-05 -1.0058170759656201e-03 0.0000000000000000e+00  8.9385173598560073e-07 -1.6829305861663271e-03 0.0000000000000000e+00  -4.7998369752903036e-05 -4.2509516503983597e-04 0.0000000000000000e+00  -4.6765731860622998e-05 -3.2110689722907721e-04 0.0000000000000000e+00  6.4562488508891289e-06 -1.6454668769582583e-03 0.0000000000000000e+00  6.5259542652471213e-06 -1.6532690415312253e-03 0.0000000000000000e+00  2.4830418035903281e-06 -1.6904973722516078e-03 0.0000000000000000e+00  4.1434342718036567e-06 -1.6899547321898123e-03 0.0000000000000000e+00  9.5732579023291734e-06 -1.6626247031546477e-03 0.0000000000000000e+00  1.2176258224837044e-06 -1.6854796227415139e-03 0.0000000000000000e+00  6.3380263042640971e-06 -1.6816157476754045e-03 0.0000000000000000e+00  1.3412061637496186e-05 -1.6307673036748084e-03 0.0000000000000000e+00  -2.1959371503260488e-05 -1.4335509728953917e-03 0.0000000000000000e+00  5.4234757779049683e-05 -6.0712211652758693e-04 0.0000000000000000e+00  6.2482833990057950e-06 -1.6659042928939753e-03 0.0000000000000000e+00  5.8198373958019970e-06 -1.6730686322991267e-03 0.0000000000000000e+00  5.3472825474675599e-05 -7.1998257559739492e-04 0.0000000000000000e+00  -7.4258578289309089e-06 -1.6370964982525408e-03 0.00000