<?xml version="1.0"?>
<VTKFile type="UnstructuredGrid"  version="0.1"  >
<UnstructuredGrid>
<Piece  NumberOfPoints="439" NumberOfCells="725">
<Points>
<DataArray  type="Float64"  NumberOfComponents="3"  format="ascii">0.571111158132237 0.06885761103483228 0  0.5802292997030467 0.08667122644420124 0  0.2489897949 0.21 0  0.2489897949 0.19 0  0.5756702895458012 0.07776445746642939 0  0.2496355385699469 0.2060260530378829 0  0.249959460510575 0.2020130349814059 0  0.2499594605105767 0.1979869650186357 0  0.24963553856995 0.1939739469621422 0  0.2540979891995939 0.2098559382357493 0  0.2592223140149221 0.2096953446902947 0  0.2643437869031552 0.2094899613809 0  0.2694512718410075 0.209147617826092 0  0.2745455928175232 0.2087305398522898 0  0.2796398706677458 0.2082081753987208 0  0.2847120106513496 0.2076309642143685 0  0.2897596588366585 0.2069585002453382 0  0.2948003302998652 0.2062100313880846 0  0.2998214223617651 0.205386572733383 0  0.3048368167788525 0.2044614500948758 0  0.3098482290836526 0.2035197273717761 0  0.3148191548745548 0.2024672966656806 0  0.3198020795634541 0.2013520934857572 0  0.324743350176206 0.2001848780752204 0  0.3296733361033244 0.198936462215238 0  0.3345847090500288 0.1976425641747055 0  0.3394718505913747 0.1962715487767994 0  0.3443387497237747 0.1948695816068498 0  0.3491868944166238 0.193401862543963 0  0.3540144254455566 0.1918895278937637 0  0.358820164969618 0.1903336300149724 0  0.3636121956167619 0.1887036419748993 0  0.3684005895416347 0.1870628601580523 0  0.3731571600400085 0.1853590825749947 0  0.377896946844853 0.1836297946721631 0  0.3826189209889656 0.1818529990691604 0  0.3873235759073714 0.1800428553462997 0  0.3920090558984318 0.1782018779936087 0  0.3966808443266789 0.1763079536231898 0  0.4013496766171377 0.1744090423308194 0  0.4059875319964443 0.1724678011294524 0  0.4106132112529415 0.1704909882491511 0  0.4152344298510359 0.1685060524134049 0  0.4198289695978079 0.1664844540286241 0  0.424421617150131 0.1644418947248128 0  0.428992673677108 0.1623793155967548 0  0.4335576455901158 0.1602893865050105 0  0.4381063620433492 0.1581870080556742 0  0.4426420115369679 0.1560628913907597 0  0.4471705594951429 0.1539229262731605 0  0.4516891562646677 0.1517654767130409 0  0.456194212999413 0.1495939683904388 0  0.4606934611811058 0.1474094627897431 0  0.465183623933036 0.1452107633916371 0  0.4696627086164603 0.1430012072097016 0  0.4741361344534267 0.1407822256836965 0  0.4786019549524477 0.138552783729907 0  0.4830594699700569 0.1363165343437849 0  0.4875121967561117 0.1340741785645798 0  0.4919587626714813 0.131825171173853 0  0.4963990073140807 0.1295723028634437 0  0.5008352754488776 0.1273162932219888 0  0.5052665443315186 0.125056817613817 0  0.5096932431552716 0.1227960387015668 0  0.5141167927516708 0.120534121257712 0  0.5185364745617639 0.1182712584841833 0  0.5229527648948425 0.1160086849419777 0  0.5273666038289108 0.1137464851078155 0  0.531777930492114 0.1114853887436008 0  0.5361868191745486 0.109225529039365 0  0.5405948804406088 0.106965955471566 0  0.5450009884821131 0.1047079608279157 0  0.5494057512011139 0.102450765256459 0  0.5538101140983028 0.1001948013305012 0  0.5582135220125062 0.09794004317765519 0  0.5626168426356076 0.09568552358549381 0  0.5670200050704021 0.09343183585421858 0  0.5714229546587239 0.09117839541098513 0  0.5758260857056224 0.08892480598943445 0  0.5667075609001417 0.07111146353169387 0  0.5623037653976682 0.07336498265819226 0  0.5578999178350116 0.07561825300146287 0  0.5534957000852438 0.07787130088233682 0  0.549090940118768 0.08012443867417565 0  0.5446858328313634 0.08237737486171523 0  0.5402797849732482 0.08463065615385679 0  0.5358727186336998 0.08688401576980645 0  0.5314650434025128 0.08913779418294632 0  0.5270559742030955 0.09139195883523242 0  0.5226462054394508 0.09364614618528236 0  0.5182351325598452 0.09590092016652597 0  0.5138224494585411 0.09815548800745461 0  0.5094096349253537 0.1004094731514095 0  0.5049950220394569 0.1026629993898915 0  0.5005789532608418 0.1049141672238597 0  0.4961630752715337 0.1071642759861498 0  0.4917445185990542 0.1094114799871274 0  0.4873248419158681 0.1116530959256789 0  0.482905799136096 0.1138928527524091 0  0.4784826561558402 0.1161258448232418 0  0.4740583681639178 0.1183488975727041 0  0.4696350516924092 0.1205690004703963 0  0.4652053886181201 0.1227776113869648 0  0.4607740241545834 0.1249710038051358 0  0.4563429238724053 0.1271585698307337 0  0.4519053449675411 0.129331743127185 0  0.4474637257231326 0.1314836998714755 0  0.4430218935616456 0.1336317817771384 0  0.4385667026682601 0.1357588667590831 0  0.4341089366351293 0.1378578191518052 0  0.4296516521252041 0.1399498824809595 0  0.4251814536961644 0.1420145609437841 0  0.4207043047691384 0.1440651433515152 0  0.4162198764219905 0.1460914267000085 0  0.411722961786741 0.1480881254547282 0  0.4072276798198605 0.1500666020887364 0  0.4027181328241166 0.1520153911226099 0  0.3982055076163575 0.1539368125375642 0  0.3936861203819014 0.1558264813509583 0  0.3891550369636118 0.1576831839291817 0  0.3846098070565089 0.1595163754746147 0  0.3800528692023462 0.1613112800344279 0  0.3755053618062082 0.1630738457724877 0  0.3709316250070438 0.1647955948344421 0  0.366362097343624 0.1664688182516637 0  0.3617707756006954 0.1681120899867268 0  0.3571720679336328 0.1697003476299128 0  0.3525573208018468 0.1712575509303426 0  0.3479282201973298 0.1727616826738614 0  0.3433133091869886 0.1742241167179457 0  0.3386657096470554 0.175633883712459 0  0.3340280512850831 0.1769792576758529 0  0.3293559806379273 0.1782818938493203 0  0.3246779263525277 0.1795031523888775 0  0.320003922644774 0.1807058226166408 0  0.315304666604827 0.181822078518778 0  0.3106271784064915 0.1828768739786228 0  0.3059131737931617 0.1838749040260553 0  0.3011966989741088 0.1847844853730679 0  0.2964671938563985 0.1856458805333794 0  0.2917267169336267 0.1864217192425844 0  0.287008223353347 0.1871378921704103 0  0.2822516884353645 0.1877759014094051 0  0.2775219037543609 0.1883339102342765 0  0.2727628493175362 0.1887979451704805 0  0.2680269073220871 0.1891809312439111 0  0.2632705560357833 0.1895038528888416 0  0.2585105449209918 0.1897298345384874 0  0.2537516270203242 0.1898450961266438 0  0.5733907314087279 0.07331105898192834 0  0.5779498521178716 0.08221792249594251 0  0.2589882061428146 0.2004039121079118 0  0.5250072481902724 0.1036939806060003 0  0.5473658936371201 0.09221492941453543 0  0.2774623167837428 0.1993120294997892 0  0.4987883277244769 0.1169874253843297 0  0.5120486263592142 0.1102159151533854 0  0.2941933113125975 0.1955636366936501 0  0.5601223276922281 0.08520707104137488 0  0.3099526914826594 0.1933343180549705 0  0.3360380464356938 0.1877781095453943 0  0.4855035727540514 0.1237351519112153 0  0.3533573511330809 0.1816244361634742 0  0.4721871132164664 0.1304326378958337 0  0.368035814763163 0.1766246405766498 0  0.3860218444665593 0.1698132128946568 0  0.4583366171948948 0.1368863994349047 0  0.4451236579164628 0.1437918993203306 0  0.3995235819118947 0.1644369113875457 0  0.4135230398416437 0.1583247809347493 0  0.4310624137281272 0.1503944775434359 0  0.3195751004512702 0.19122492732251 0  0.5386111159152747 0.09671902575739007 0  0.4212825626748135 0.1547045787529489 0  0.345252394050477 0.1843525954323777 0  0.3780985671944719 0.1730489507429439 0  0.2859409253624478 0.1975106503649195 0  0.5669628649890928 0.08024795199112925 0  0.2680726430087516 0.2010169221069144 0  0.4528216425819965 0.1425983631463658 0  0.4795763247060676 0.1293660597969699 0  0.4928855098738074 0.1226357707290321 0  0.3920889328064047 0.1649450184826787 0  0.4662261148501769 0.1360315857306978 0  0.506162933571639 0.115869853569318 0  0.4393473097714613 0.1490346980736314 0  0.5194155964175424 0.1090908712293717 0  0.40579755678029 0.159209110732052 0  0.3596878356754731 0.1771278167779682 0  0.3026315737922769 0.1925067231585443 0  0.5526259016943459 0.08702660559159266 0  0.5302202299995513 0.09779328653975987 0  0.3280065395759343 0.1920690229330992 0  0.531462914739545 0.1047112639406501 0  0.3282971998358845 0.1850240521116916 0  0.5185755297620115 0.1026225005845612 0  0.5053308630288795 0.1093932231199315 0  0.4920692414604657 0.1161510125647356 0  0.5573713417502865 0.09148449096747847 0  0.3015704067578116 0.1989320716945581 0  0.465475988120949 0.1295318140769025 0  0.4787866536896853 0.1228737165988029 0  0.3923437776053251 0.1714769460083974 0  0.3595664339944519 0.1836551306168768 0  0.4481694456873705 0.1380063675260254 0  0.4387245227459191 0.1425199223359609 0  0.406181361752884 0.1657372217280337 0  0.2557048759781612 0.1960220521034479 0  0.2550704837326833 0.2033941788859604 0  0.4290771684827714 0.1554930665645061 0  0.37040935038157 0.1717054441697061 0  0.3382080162258659 0.1821523418327859 0  0.2807578843369708 0.1941411863700579 0  0.2905325829286017 0.1928612162695951 0  0.4198339193219242 0.1598640724107348 0  0.3472903584179455 0.1794015829630738 0  0.3798131555013892 0.1679730649379788 0  0.3152024503316295 0.1882633118910955 0  0.5436829576498845 0.09838656149696323 0  0.5404217197733757 0.09138932208151004 0  0.3164943394247023 0.1958892725952206 0  0.2707165659896166 0.1950621413381831 0  0.5665133052591516 0.08775924674160039 0  0.4254916222486734 0.1479463777724993 0  0.4162340254625017 0.1525846270359458 0  0.3402807951308762 0.1906776849786462 0  0.2813183235827306 0.2028576847485481 0  0.2919322169853086 0.2014438150642172 0  0.3733895397983251 0.1794927444013303 0  0.3497671777277119 0.1882035728585014 0  0.3828549872271327 0.1766127846703673 0  0.2645824195684446 0.1957349048741419 0  0.5724581001060535 0.0839512217425373 0  0.513156912869092 0.1048525522575146 0  0.499906028199776 0.1116193904473955 0  0.3074295842300144 0.1982945938807271 0  0.4866373300768286 0.1183652652657229 0  0.5524098771611128 0.09455449371989724 0  0.4733460018794889 0.1250649540909558 0  0.4600613126657256 0.1316638552966803 0  
[...]
<PointData  Vectors="d"> 
<DataArray  type="Float64"  Name="d"  NumberOfComponents="3" format="ascii">-2.8888841867762922e-02 -1.2114238896516777e-01 0.0000000000000000e+00  -1.9770700296953374e-02 -1.2332877355579878e-01 0.0000000000000000e+00  0.0000000000000000e+00 0.0000000000000000e+00 0.0000000000000000e+00  0.0000000000000000e+00 0.0000000000000000e+00 0.0000000000000000e+00  -2.4329710454198881e-02 -1.2223554253357066e-01 0.0000000000000000e+00  0.0000000000000000e+00 0.0000000000000000e+00 0.0000000000000000e+00  0.0000000000000000e+00 0.0000000000000000e+00 0.0000000000000000e+00  0.0000000000000000e+00 0.0000000000000000e+00 0.0000000000000000e+00  0.0000000000000000e+00 0.0000000000000000e+00 0.0000000000000000e+00  1.6438859396453100e-04 -1.4406176425070015e-04 0.0000000000000000e+00  3.4490770366788702e-04 -3.0465530970531259e-04 0.0000000000000000e+00  5.2257488626309052e-04 -5.1003861910003522e-04 0.0000000000000000e+00  6.8625411847756074e-04 -8.5238217390802172e-04 0.0000000000000000e+00  8.3676938936624434e-04 -1.2694601477102037e-03 0.0000000000000000e+00  9.8724153397051107e-04 -1.7918246012791565e-03 0.0000000000000000e+00  1.1155758119559191e-03 -2.3690357856314811e-03 0.0000000000000000e+00  1.2194182916418920e-03 -3.0414997546617754e-03 0.0000000000000000e+00  1.3162840492130018e-03 -3.7899686119153464e-03 0.0000000000000000e+00  1.3935704054942569e-03 -4.6134272666170650e-03 0.0000000000000000e+00  1.4651591169527894e-03 -5.5385499051242865e-03 0.0000000000000000e+00  1.5327657161344729e-03 -6.4802726282238822e-03 0.0000000000000000e+00  1.5598858014182501e-03 -7.5327033343194670e-03 0.0000000000000000e+00  1.5990047846992106e-03 -8.6479065142428101e-03 0.0000000000000000e+00  1.5964696918327826e-03 -9.8151219247796153e-03 0.0000000000000000e+00  1.5826499133327412e-03 -1.1063537784762042e-02 0.0000000000000000e+00  1.5502171544080432e-03 -1.2357435825294525e-02 0.0000000000000000e+00  1.4935529901462480e-03 -1.3728451223200596e-02 0.0000000000000000e+00  1.4166464169171138e-03 -1.5130418393150262e-02 0.0000000000000000e+00  1.3209854041476348e-03 -1.6598137456036936e-02 0.0000000000000000e+00  1.2047107274621661e-03 -1.8110472106236380e-02 0.0000000000000000e+00  1.0666445459052414e-03 -1.9666369985027663e-02 0.0000000000000000e+00  9.1486948743083919e-04 -2.1296358025100631e-02 0.0000000000000000e+00  7.5945770668517387e-04 -2.2937139841947646e-02 0.0000000000000000e+00  5.7222249942971237e-04 -2.4640917425005227e-02 0.0000000000000000e+00  3.6820359866528613e-04 -2.6370205327836873e-02 0.0000000000000000e+00  1.4637203715347341e-04 -2.8147000930839598e-02 0.0000000000000000e+00  -9.2778750062396442e-05 -2.9957144653700255e-02 0.0000000000000000e+00  -3.5110446463141129e-04 -3.1798122006391337e-02 0.0000000000000000e+00  -6.2312174199164589e-04 -3.3692046376810232e-02 0.0000000000000000e+00  -8.9809515716082961e-04 -3.5590957669180620e-02 0.0000000000000000e+00  -1.2040454834664738e-03 -3.7532198870547574e-02 0.0000000000000000e+00  -1.5221719325895053e-03 -3.9509011750848845e-02 0.0000000000000000e+00  -1.8447590401158330e-03 -4.1493947586595067e-02 0.0000000000000000e+00  -2.1940249989557338e-03 -4.3515545971375968e-02 0.0000000000000000e+00  -2.5451831522608935e-03 -4.5558105275187138e-02 0.0000000000000000e+00  -2.9179323309171767e-03 -4.7620684403245198e-02 0.0000000000000000e+00  -3.2967661235615052e-03 -4.9710613494989488e-02 0.0000000000000000e+00  -3.6918553759836244e-03 -5.1812991944325766e-02 0.0000000000000000e+00  -4.1000115880289560e-03 -5.3937108609240197e-02 0.0000000000000000e+00  -4.5152693355015551e-03 -5.6077073726839483e-02 0.0000000000000000e+00  -4.9404782716187898e-03 -5.8234523286959140e-02 0.0000000000000000e+00  -5.3792272425029824e-03 -6.0406031609561178e-02 0.0000000000000000e+00  -5.8237847664607259e-03 -6.2590537210256966e-02 0.0000000000000000e+00  -6.2774277201637779e-03 -6.4789236608362916e-02 0.0000000000000000e+00  -6.7421487424063863e-03 -6.6998792790298467e-02 0.0000000000000000e+00  -7.2125286110866606e-03 -6.9217774316303465e-02 0.0000000000000000e+00  -7.6905138177282961e-03 -7.1447216270093025e-02 0.0000000000000000e+00  -8.1768045057496585e-03 -7.3683465656215114e-02 0.0000000000000000e+00  -8.6678834253492727e-03 -7.5925821435420149e-02 0.0000000000000000e+00  -9.1651232156082785e-03 -7.8174828826146903e-02 0.0000000000000000e+00  -9.6686842786684792e-03 -8.0427697136556314e-02 0.0000000000000000e+00  -1.0176221849509946e-02 -8.2683706778011193e-02 0.0000000000000000e+00  -1.0688758672485161e-02 -8.4943182386183036e-02 0.0000000000000000e+00  -1.1205865554369700e-02 -8.7203961298433247e-02 0.0000000000000000e+00  -1.1726121663629640e-02 -8.9465878742287910e-02 0.0000000000000000e+00  -1.2250245559175124e-02 -9.1728741515816725e-02 0.0000000000000000e+00  -1.2777760931756076e-02 -9.3991315058022329e-02 0.0000000000000000e+00  -1.3307727703325748e-02 -9.6253514892184491e-02 0.0000000000000000e+00  -1.3840206745739039e-02 -9.8514611256399168e-02 0.0000000000000000e+00  -1.4375123768942271e-02 -1.0077447096063506e-01 0.0000000000000000e+00  -1.4910868208536966e-02 -1.0303404452843395e-01 0.0000000000000000e+00  -1.5448565872675481e-02 -1.0529203917208432e-01 0.0000000000000000e+00  -1.5987608859334181e-02 -1.0754923474354097e-01 0.0000000000000000e+00  -1.6527051667808521e-02 -1.0980519866949880e-01 0.0000000000000000e+00  -1.7067449459239763e-02 -1.1205995682234485e-01 0.0000000000000000e+00  -1.7607934541775810e-02 -1.1431447641450622e-01 0.0000000000000000e+00  -1.8148577812632023e-02 -1.1656816414578140e-01 0.0000000000000000e+00  -1.8689433929956777e-02 -1.1882160458901490e-01 0.0000000000000000e+00  -1.9230108588718108e-02 -1.2107519401056557e-01 0.0000000000000000e+00  -2.8348633394241294e-02 -1.1888853646830609e-01 0.0000000000000000e+00  -2.7808623191089815e-02 -1.1663501734180774e-01 0.0000000000000000e+00  -2.7268665048107717e-02 -1.1438174699853712e-01 0.0000000000000000e+00  -2.6729077092228881e-02 -1.1212869911766317e-01 0.0000000000000000e+00  -2.6190031353083395e-02 -1.0987556132582436e-01 0.0000000000000000e+00  -2.5651332934867779e-02 -1.0762262513828481e-01 0.0000000000000000e+00  -2.5113575087369854e-02 -1.0536934384614324e-01 0.0000000000000000e+00  -2.4576835721288978e-02 -1.0311598423019354e-01 0.0000000000000000e+00  -2.4040705246845130e-02 -1.0086220581705371e-01 0.0000000000000000e+00  -2.3505968740608063e-02 -9.8608041164767568e-02 0.0000000000000000e+00  -2.2971931798653457e-02 -9.6353853814717602e-02 0.0000000000000000e+00  -2.2439198972659863e-02 -9.4099079833474056e-02 0.0000000000000000e+00  -2.1908076368355012e-02 -9.1844511992545466e-02 0.0000000000000000e+00  -2.1377085195909168e-02 -8.9590526848590452e-02 0.0000000000000000e+00  -2.0847892376205927e-02 -8.7337000610108489e-02 0.0000000000000000e+00  -2.0320155449182798e-02 -8.5085832776140305e-02 0.0000000000000000e+00  -1.9792227732888162e-02 -8.2835724013850212e-02 0.0000000000000000e+00  -1.9266978699768397e-02 -8.0588520012872547e-02 0.0000000000000000e+00  -1.8742849677349557e-02 -7.8346904074321100e-02 0.0000000000000000e+00  -1.8218086751484411e-02 -7.6107147247590906e-02 0.0000000000000000e+00  -1.7697424026131895e-02 -7.3874155176758147e-02 0.0000000000000000e+00  -1.7177906312435237e-02 -7.1651102427295915e-02 0.0000000000000000e+00  -1.6657417078325146e-02 -6.9430999529603687e-02 0.0000000000000000e+00  -1.6143274446984435e-02 -6.7222388613035228e-02 0.0000000000000000e+00  -1.5630833204913219e-02 -6.5028996194864186e-02 0.0000000000000000e+00  -1.5118127781462968e-02 -6.2841430169266327e-02 0.0000000000000000e+00  -1.4611900980714311e-02 -6.0668256872814991e-02 0.0000000000000000e+00  -1.4109714519502402e-02 -5.8516300128524483e-02 0.0000000000000000e+00  -1.3607740975364706e-02 -5.6368218222861657e-02 0.0000000000000000e+00  -1.3119126163120736e-02 -5.4241133240916881e-02 0.0000000000000000e+00  -1.2633086490642310e-02 -5.2142180848194747e-02 0.0000000000000000e+00  -1.2146565294942470e-02 -5.0050117519040455e-02 0.0000000000000000e+00  -1.1672958018365176e-02 -4.7985439056215905e-02 0.0000000000000000e+00  -1.1206301239774752e-02 -4.5934856648484769e-02 0.0000000000000000e+00  -1.0746923881296144e-02 -4.3908573299991517e-02 0.0000000000000000e+00  -1.0300032810907219e-02 -4.1911874545271843e-02 0.0000000000000000e+00  -9.8515090721451037e-03 -3.9933397911263525e-02 0.0000000000000000e+00  -9.4172503622427933e-03 -3.7984608877390115e-02 0.0000000000000000e+00  -8.9860698643419983e-03 -3.6063187462435760e-02 0.0000000000000000e+00  -8.5616513931464008e-03 -3.4173518649041661e-02 0.0000000000000000e+00  -8.1489291057784373e-03 -3.2316816070818287e-02 0.0000000000000000e+00  -7.7503533072458353e-03 -3.0483624525385306e-02 0.0000000000000000e+00  -7.3634854557620526e-03 -2.8688719965572103e-02 0.0000000000000000e+00  -6.9671871462740412e-03 -2.6926154227512298e-02 0.0000000000000000e+00  -6.5971182397821116e-03 -2.5204405165557966e-02 0.0000000000000000e+00  -6.2228401975533030e-03 -2.3531181748336315e-02 0.0000000000000000e+00  -5.8703562348130667e-03 -2.1887910013273188e-02 0.0000000000000000e+00  -5.5252581962285559e-03 -2.0299652370087219e-02 0.0000000000000000e+00  -5.1961996223640148e-03 -1.8742449069657403e-02 0.0000000000000000e+00  -4.8814945212591913e-03 -1.7238317326138685e-02 0.0000000000000000e+00  -4.5525998259423051e-03 -1.5775883282054304e-02 0.0000000000000000e+00  -4.2563936602365180e-03 -1.4366116287541017e-02 0.0000000000000000e+00  -3.9502463165704393e-03 -1.3020742324147122e-02 0.0000000000000000e+00  -3.6785112580877848e-03 -1.1718106150679733e-02 0.0000000000000000e+00  -3.4127598378472504e-03 -1.0496847611122431e-02 0.0000000000000000e+00  -3.1429578399431194e-03 -9.2941773833591351e-03 0.0000000000000000e+00  -2.8984081742320414e-03 -8.1779214812219472e-03 0.0000000000000000e+00  -2.6320906669096964e-03 -7.1231260213773274e-03 0.0000000000000000e+00  -2.4022895745963628e-03 -6.1250959739446676e-03 0.0000000000000000e+00  -2.1749586880107225e-03 -5.2155146269320151e-03 0.0000000000000000e+00  -1.9606581000828874e-03 -4.3541194666205860e-03 0.0000000000000000e+00  -1.7573293172162996e-03 -3.5782807574156229e-03 0.0000000000000000e+00  -1.5320171918402901e-03 -2.8621078295897068e-03 0.0000000000000000e+00  -1.3447464041650078e-03 -2.2240985905948923e-03 0.0000000000000000e+00  -1.1307253795107036e-03 -1.6660897657235947e-03 0.0000000000000000e+00  -9.4597411068817546e-04 -1.2020548295195858e-03 0.0000000000000000e+00  -7.3811040049896249e-04 -8.1906875608892731e-04 0.0000000000000000e+00  -5.5065598116442731e-04 -4.9614711115836155e-04 0.0000000000000000e+00  -3.6686139031736714e-04 -2.7016546151250432e-04 0.0000000000000000e+00  -1.8197358533374807e-04 -1.5490387335614288e-04 0.0000000000000000e+00  -2.6609268591272071e-02 -1.2168894101804996e-01 0.0000000000000000e+00  -2.2050147882128352e-02 -1.2278207750403038e-01 0.0000000000000000e+00  1.4779611165348367e-05 -1.4847723492858759e-04 0.0000000000000000e+00  -1.8138986195035092e-02 -9.6306019393968711e-02 0.0000000000000000e+00  -2.0873895839695913e-02 -1.0775552916636326e-01 0.0000000000000000e+00  1.0924071940370901e-05 -1.4821624424034942e-03 0.0000000000000000e+00  -1.5061255652420093e-02 -8.2914917264762175e-02 0.0000000000000000e+00  -1.6632374134523887e-02 -8.9686427495711415e-02 0.0000000000000000e+00  -3.1758389316715078e-04 -3.7275541468885197e-03 0.0000000000000000e+00  -2.2655755446264355e-02 -1.1433590905896003e-01 0.0000000000000000e+00  -4.6014817426619318e-04 -6.6361405259272553e-03 0.0000000000000000e+00  -9.6212910616120118e-04 -1.3051351698002412e-02 0.0000000000000000e+00  -1.3514593505994535e-02 -7.6167190737874868e-02 0.0000000000000000e+00  -1.9242664378235461e-03 -1.8375563836586575e-02 0.0000000000000000e+00  -1.1999635926726164e-02 -6.9469704753251191e-02 0.0000000000000000e+00  -2.7015566273920454e-03 -2.3389597118719074e-02 0.0000000000000000e+00  -3.8664130436901968e-03 -3.0186787105425997e-02 0.0000000000000000e+00  -1.0649137854378595e-02 -6.2655272990764718e-02 0.0000000000000000e+00  -9.0340737677337534e-03 -5.6208100679579140e-02 0.0000000000000000e+00  -4.8299094899383844e-03 -3.5660745963378683e-02 0.0000000000000000e+00  -6.0280519023130840e-03 -4.1675219065356470e-02 0.0000000000000000e+00  -7.6395641363240291e-03 -4.9591284761241305e-02 0.0000000000000000e+00  -6.7217457440009508e-04 -8.7839568921299419e-03 0.0000000000000000e+00  -1.9794238192810384e-02 -1.0327209002796765e-01 0.0000000000000000e+00  -6.7841520138999314e-03 -4.5144326067875218e-02 0.0000000000000000e+00  -1.5136005760704521e-03 -1.5798499747059744e-02 0.0000000000000000e+00  -3.2740673714189571e-03 -2.7102144436508102e-02 0.0000000000000000e+00  -1.2741232976208001e-04 -2.5308942056986271e-03 0.0000000000000000e+00  -2.4159516189026765e-02 -1.1799696394374513e-01 0.0000000000000000e+00  8.3326862888894853e-05 -6.5820353981460849e-04 0.0000000000000000e+00  -8.7517976606314336e-03 -5.9652000182434529e-02 0.0000000000000000e+00  -1.1659949770277697e-02 -7.2884303531839209e-02 0.0000000000000000e+00  -1.3182181719391057e-02 -7.9614592599779627e-02 0.0000000000000000e+00  -5.2150332622727088e-03 -3.2804618188517827e-02 0.0000000000000000e+00  -1.0178742509312711e-02 -6.6218777598107265e-02 0.0000000000000000e+00  -1.4736175138406598e-02 -8.6380509759500457e-02 0.0000000000000000e+00  -7.3947133543042498e-03 -5.3215665255168562e-02 0.0000000000000000e+00  -1.6314929409342326e-02 -9.3159492099448113e-02 0.0000000000000000e+00  -6.3378264052415803e-03 -3.8540525939145649e-02 0.0000000000000000e+00  -3.0094904538621732e-03 -2.0621819893223713e-02 0.0000000000000000e+00  -7.4008386961925605e-04 -5.2429135126425656e-03 0.0000000000000000e+00  -2.2655069777477024e-02 -1.1072303107955764e-01 0.0000000000000000e+00  -2.0239625919504657e-02 -9.9335191934006806e-02 0.0000000000000000e+00  -1.8623363874984631e-04 -1.0802498593141441e-02 0.0000000000000000e+00  -1.6954987310201102e-02 -9.9129057628826192e-02 0.0000000000000000e+00  -1.9375272481143039e-03 -1.1135626318857467e-02 0.0000000000000000e+00  -1.9345555461799814e-02 -9.3502681079849825e-02 0.0000000000000000e+00  -1.7758805078085603e-02 -8.6731958544474255e-02 0.0000000000000000e+00  -1.6189009529656455e-02 -7.9974169099674211e-02 0.0000000000000000e+00  -2.0100189118422825e-02 -1.1239032736811023e-01 0.0000000000000000e+00  3.8930849285678137e-04 -4.9427466410355723e-03 0.0000000000000000e+00  -1.3119428635462078e-02 -6.6593367587501534e-02 0.0000000000000000e+00  -1.4640180183581755e-02 -7.3251465065603358e-02 0.0000000000000000e+00  -2.7696290664379454e-03 -3.2397872327199199e-02 0.0000000000000000e+00  -9.4033273795992634e-04 -2.0219687718718224e-02 0.0000000000000000e+00  -1.1213435158344021e-02 -5.8118814138373852e-02 0.0000000000000000e+00  -1.0208059776761393e-02 -5.3605259328439771e-02 0.0000000000000000e+00  -3.7634620357380154e-03 -3.8137596607565362e-02 0.0000000000000000e+00  -8.1424002035931345e-05 -6.3784922281523543e-05 0.0000000000000000e+00  5.5747701743483628e-05 -4.8464113151008354e-05 0.0000000000000000e+00  -5.7259791636974271e-03 -4.8280691199649325e-02 0.0000000000000000e+00  -4.2268512268399524e-03 -2.4520798066149159e-02 0.0000000000000000e+00  -2.4178203605646040e-03 -1.3894450361203120e-02 0.0000000000000000e+00  -5.4228378201251254e-04 -1.9056058239922643e-03 0.0000000000000000e+00  -7.3605581538757278e-04 -3.2204165953330886e-03 0.0000000000000000e+00  -4.8366142600650870e-03 -4.4089135395219595e-02 0.0000000000000000e+00  -2.8718173149674905e-03 -1.6645209231114028e-02 0.0000000000000000e+00  -4.9556601708802698e-03 -2.8073727256257081e-02 0.0000000000000000e+00  -1.4299182067264078e-03 -7.8961466722744476e-03 0.0000000000000000e+00  -1.8472043455456527e-02 -1.0539508776293589e-01 0.0000000000000000e+00  -2.2019667928601168e-02 -1.0468687027962768e-01 0.0000000000000000e+00  2.5483584138948101e-04 -7.9786831472485348e-03 0.0000000000000000e+00  -3.7214743114561685e-04 -9.0750299440066253e-04 0.0000000000000000e+00  -2.0788132381208788e-02 -1.1696354136148192e-01 0.0000000000000000e+00  -9.1763343955974519e-03 -4.7518768182751997e-02 0.0000000000000000e+00  -8.0956249452968747e-03 -4.3291071057960408e-02 0.0000000000000000e+00  2.4844047523857457e-05 -1.4116365050446139e-02 0.0000000000000000e+00  4.4983090663724989e-04 -1.9165570327174910e-03 0.0000000000000000e+00  5.2451367143624005e-04 -3.3371366428783678e-03 0.0000000000000000e+00  -1.3818528121680293e-03 -2.5042109643525146e-02 0.0000000000000000e+00  -1.5447116217473796e-04 -1.6971768460129075e-02 0.0000000000000000e+00  -1.6733016020970299e-03 -2.8562556648268640e-02 0.0000000000000000e+00  -2.3206697706068240e-04 -4.7406942449551310e-04 0.0000000000000000e+00  -2.1866664260235889e-02 -1.2009032061638091e-01 0.0000000000000000e+00  -1.8940348176522456e-02 -9.0791957647572516e-02 0.0000000000000000e+00  -1.7359815728996770e-02 -8.4025119457689895e-02 0.0000000000000000e+00  4.3725866974872235e-04 -6.0522095065279526e-03 0.0000000000000000e+00  -1.5797096735097892e-02 -7.7279244639363531e-02 0.0000000000000000e+00  -1.9250426412322347e-02 -1.0979230966737891e-01 0.0000000000000000e+00  -1.4257007815585141e-02 -7.0579555814127337e-02 0.0000000000000000e+00  -1.2753884863900694e-02 -6.3976391594309096e-02 0.0000000000000000e+00  -1.0433727841565627e-03 -2.2154831677748493e-02 0.0000000000000000e+00  -1.1989331148950549e-02 -6.0601713520594305e-02 0.0000000000000000e+00  -2.9695523628000763e-03 -3.4652359646989150e-02 0.0000000000000000e+00  -9.8789569178910422e-03 -5.1080447053854963e-02 0.0000000000000000e+00  -3.9975265186014009e-03 -4.0496601472657566e-02 0.0000000000000000e+00  -2.4819235270069587e-02 -1.1561373024408932e-01 0.0000000000000000e+00  -1.7305769402531149e-02 -1.0181610796023349e-01 0.0000000000000000e+00  -1.8579654057024211e-03 -9.6962188686103342e-03 0.0000000000000000e+00  3.6535673630118723e-04 -1.0023409528062230e-03 0.0000000000000000e+00  1.9625245239678895e-04 -3.8124635758126594e-04 0.0000000000000000e+00  -7.2671679345077608e-03 -5.7789184687727688e-02 0.0000000000000000e+00  -7.6060815051737308e-03 -4.0215224915366776e-02 0.0000000000000000e+00  -8.6517883389969075e-03 -6.4326842148410182e-02 0.0000000000000000e+00  -1.3181764895800875e-02 -8.4434882574528233e-02 0.0000000000000000e+00  -1.0143372286269832e-02 -7.0955393433852723e-02 0.0000000000000000e+00  -1.1643245286577690e-02 -7.7673545082055234e-02 0.0000000000000000e+00  -6.1981304307806538e-03 -3.4586400788421942e-02 0.0000000000000000e+00  -6.0396972020267635e-03 -5.1422553025091938e-02 0.0000000000000000e+00  -3.9955917530947339e-03 -2.2048106542956674e-02 0.0000000000000000e+00  -5.7641721799827654e-03 -3.0866310665797848e-02 0.0000000000000000e+00  -1.5730890485036900e-02 -9.5602126712241053e-02 0.0000000000000000e+00  -3.5064137394380051e-03 -1.8998485247616256e-02 0.0000000000000000e+00  -1.5049374241552784e-02 -9.1056015785165256e-02 0.0000000000000000e+00  -1.2832289259469278e-03 -6.0920688550576566e-03 0.0000000000000000e+00  -1.0474107852206445e-03 -4.3755377670451241e-03 0.0000000000000000e+00  -2.4140221543671611e-02 -1.1248308990423128e-01 0.0000000000000000e+00  -2.3230303542657739e-02 -1.0828246878031828e-01 0.0000000000000000e+00  -1.3124161423881278e-02 -8.2111699062749857e-02 0.0000000000000000e+00  -1.1593820584371164e-02 -7.5363189351913051e-02 0.0000000000000000e+00  -8.5341291311384401e-03 -6.2005094623757410e-02 0.0000000000000000e+00  -1.4561844255351427e-02 -8.8843397018557868e-02 0.0000000000000000e+00  -1.0103508263116019e-02 -6.8667943537495321e-02 0.0000000000000000e+00  -7.1311907218715347e-03 -5.5527301453604634e-02 0.0000000000000000e+00  -6.5489246547940708e-03 -3.6452499419925018e-02 0.0000000000000000e+00  3.4705344188622471e-04 -9.6950937502580208e-03 0.0000000000000000e+00  -2.1584424307926346e-02 -1.0128505316660230e-01 0.0000000000000000e+00  -2.0502268760802821e-02 -9.7014827923817659e-02 0.0000000000000000e+00  1.4516