<?xml version="1.0"?>
<VTKFile type="UnstructuredGrid"  version="0.1"  >
<UnstructuredGrid>
<Piece  NumberOfPoints="439" NumberOfCells="725">
<Points>
<DataArray  type="Float64"  NumberOfComponents="3"  format="ascii">0.5687956754183151 0.06330934090746253 0  0.5783046186033175 0.0811034545534976 0  0.2489897949 0.21 0  0.2489897949 0.19 0  0.5735501780708399 0.0722063405234724 0  0.2496355385699469 0.2060260530378829 0  0.249959460510575 0.2020130349814059 0  0.2499594605105767 0.1979869650186357 0  0.24963553856995 0.1939739469621422 0  0.2541080574883209 0.2098466750820571 0  0.2592433394009626 0.209675549130593 0  0.2643753836759627 0.209456349887596 0  0.2694917759481903 0.2090912548439058 0  0.2745935740466171 0.2086463327881913 0  0.2796943359713882 0.2080891482187251 0  0.2847708607688893 0.2074734854653297 0  0.2898201720480935 0.2067566390680432 0  0.2948608397605412 0.2059589474702659 0  0.2998793773831498 0.2050817243578118 0  0.304889732758931 0.2040964251783067 0  0.3098955993792876 0.2030932262117848 0  0.3148560074941637 0.2019731178281284 0  0.3198280555612745 0.2007857051615086 0  0.3247546958259955 0.1995439201149108 0  0.3296679207947896 0.1982160176557684 0  0.3345604854257421 0.1968403905739995 0  0.33942615939932 0.1953836348128272 0  0.3442697962042792 0.1938949306092337 0  0.3490925625625212 0.1923375492104306 0  0.3538928027857343 0.1907339333368866 0  0.358669340750314 0.1890854684809304 0  0.3634297382139151 0.1873606483548185 0  0.3681857656869532 0.1856247013392425 0  0.3729068945772846 0.1838242614095849 0  0.3776096741532876 0.1819979580028755 0  0.3822923084679606 0.1801230069667751 0  0.3869557497166445 0.1782139879452357 0  0.391598116115681 0.1762737738736683 0  0.3962245001368273 0.1742789167288814 0  0.4008477078855217 0.172279280439207 0  0.4054373959426611 0.1702369683988064 0  0.4100139438526433 0.1681588964941301 0  0.4145855166352266 0.1660731993923163 0  0.4191290554147494 0.1639513766052013 0  0.42367003610529 0.161809546340925 0  0.4281889171174634 0.1596491884569229 0  0.4327006472632165 0.1574635525844498 0  0.4371961030486115 0.1552670765244879 0  0.4416782519251183 0.153051724603623 0  0.4461525042258378 0.1508230053267179 0  0.4506163010919237 0.1485797274390783 0  0.4550669518305184 0.1463251890385369 0  0.4595112481958288 0.1440602217946667 0  0.4639465388732489 0.1417839560202357 0  0.4683714691156716 0.1394992566201649 0  0.4727910625564787 0.1372069725218056 0  0.4772039980398532 0.1349062659721761 0  0.481609964064062 0.1325997254784232 0  0.486012641309385 0.1302875815534961 0  0.4904112955602309 0.1279694034358878 0  0.4948057387535539 0.1256467260368484 0  0.4991989181571063 0.1233201132741416 0  0.503590342333627 0.1209892896925912 0  0.5079799479613947 0.1186551180031589 0  0.5123700086998061 0.1163182207595398 0  0.5167600978485155 0.1139786900207931 0  0.5211504541532498 0.1116370566914223 0  0.5255408641597608 0.1092937723408814 0  0.5299324765502902 0.1069481333654873 0  0.5343262383185281 0.1046010939920297 0  0.538720236013846 0.1022542839066273 0  0.5431157382112022 0.09990554795670877 0  0.5475127228260447 0.09755686390664839 0  0.5519102220912161 0.09520709690731594 0  0.5563089718332477 0.09285679905470977 0  0.5607077245260472 0.09050642976210939 0  0.565107020987601 0.088155574742111 0  0.5695065177606323 0.08580478443863049 0  0.5739056277077295 0.08345413959169229 0  0.5643972395609077 0.06566024726287605 0  0.5599986218119554 0.06801170136704619 0  0.5555998630389013 0.07036352935784679 0  0.551201312388286 0.07271601095894768 0  0.5468034706602599 0.0750688834791101 0  0.5424060339268713 0.0774223152433985 0  0.5380102611738471 0.0797758652365506 0  0.533616283506668 0.08212976858121576 0  0.5292235763507407 0.08448336702245675 0  0.5248337042976523 0.08683607050829302 0  0.5204455148393314 0.08918837065305912 0  0.5160598381099853 0.09153830803175933 0  0.5116777325487735 0.09388563053056907 0  0.5072969396074407 0.09623262226040426 0  0.5029184035153806 0.0985747388570361 0  0.498542851183543 0.1009116457710474 0  0.4941685713433181 0.1032471600827026 0  0.4897945220802151 0.1055753462082774 0  0.4854218200455347 0.1078958101742963 0  0.4810501552871195 0.1102138472350886 0  0.4766757615708786 0.1125223372323876 0  0.4723005318073184 0.1148204352044508 0  0.467925978948678 0.1171151555980687 0  0.4635453175151951 0.1193982586322949 0  0.459161802757317 0.1216679210728304 0  0.4547777423911146 0.1239320839186098 0  0.4503872051557226 0.1261837287023875 0  0.4459912376125575 0.1284177657809163 0  0.4415948009349235 0.1306481793994237 0  0.4371856750543427 0.1328615183774006 0  0.4327733470462226 0.1350504983496437 0  0.4283611382250488 0.137233228156943 0  0.4239370587691901 0.139391985922562 0  0.4195066115876764 0.1415380975061616 0  0.4150696644459809 0.1436614830027289 0  0.4106209753205964 0.1457564490928434 0  0.4061742677127667 0.1478333195004226 0  0.4017135048794666 0.1498806843242221 0  0.3972496642221904 0.1519000311340268 0  0.3927789041455343 0.1538868905755177 0  0.3882957252375228 0.1558396997209811 0  0.3837975682391206 0.1577683424758264 0  0.3792860674943653 0.1596574768597598 0  0.3747833771280868 0.1615129119271109 0  0.3702520665483969 0.1633266983274632 0  0.3657237855614148 0.1650905714617991 0  0.3611719309717001 0.1668242087233802 0  0.3566112198942685 0.1685015238020243 0  0.3520333421967687 0.1701473619500513 0  0.3474399847729738 0.1717388119296875 0  0.3428612934147038 0.1732869413054756 0  0.3382483359108332 0.1747805848961067 0  0.3336457054047908 0.1762064408401572 0  0.3290068551501823 0.1775875087589995 0  0.3243609436484968 0.1788820778933522 0  0.3197193223397657 0.1801565827817179 0  0.3150494980629543 0.1813391876231547 0  0.3104017002626371 0.1824556336871079 0  0.305713507860203 0.1835122715726113 0  0.3010205807146588 0.1844748997599083 0  0.2963126313546854 0.1853868005492922 0  0.2915912652072755 0.1862084510769349 0  0.2868924628681451 0.1869669101177111 0  0.2821520941547714 0.187643395763098 0  0.2774396510148692 0.1882348769976429 0  0.2726952995106149 0.1887269663668073 0  0.2679751333008412 0.1891327044522458 0  0.2632328374517181 0.1894749019232274 0  0.2584858305936336 0.1897139698269137 0  0.2537392899812273 0.189835640846308 0  0.5711729945545575 0.06775781566061603 0  0.5759274117363882 0.07665478562442245 0  0.2589887937441704 0.2003951707285795 0  0.52299260809163 0.09924661578658969 0  0.5452773395997185 0.08728794333311508 0  0.2774557778920506 0.1992186015899585 0  0.4969679969835638 0.1130320055720417 0  0.5101139572941851 0.106022738695354 0  0.2941502240571991 0.1953292137942522 0  0.5580086781880671 0.07999059635894197 0  0.3098723446785266 0.1929191182117188 0  0.3358447136660103 0.1869642286232784 0  0.4838207908117306 0.1199999088464963 0  0.3530381795228932 0.1804921945086091 0  0.4706537635389335 0.126911539197394 0  0.3676086191712786 0.1752046703523676 0  0.3854353348152104 0.168024607721652 0  0.4569527076403653 0.1335979173858824 0  0.4438972939566001 0.1407454702531644 0  0.3988022954619698 0.1623605655720326 0  0.4126467861027617 0.1559420922963743 0  0.4299910744741631 0.1476316824529728 0  0.3194553881929529 0.1906773600576299 0  0.5365426852457104 0.09198526662390306 0  0.420316378332626 0.1521520825727166 0  0.3449899549551695 0.1833734507994485 0  0.3775892649839869 0.1714246951200229 0  0.2859186922300418 0.1973508285693317 0  0.5648166979169268 0.07486654760092058 0  0.2680753742954537 0.2009759364419194 0  0.451559432693192 0.1394030313002698 0  0.4780080150515239 0.1257210540695905 0  0.491172257005112 0.1187776432493072 0  0.3913884923665145 0.1630310608482256 0  0.4648106366450592 0.1326025943945634 0  0.5043233091173148 0.1117874579229216 0  0.4382374338662348 0.1460984512781749 0  0.5174777447330557 0.1047642879101847 0  0.4049510757774988 0.1569984776737575 0  0.3592757687616054 0.1758748138051213 0  0.3025478560592332 0.1921813067952532 0  0.55048580197204 0.08196267821600178 0  0.5281245543052701 0.09322023194702626 0  0.3278916447321516 0.1913877857518311 0  0.5294957515965003 0.1001519251716958 0  0.3280665290194055 0.1843438412188007 0  0.5165203857617354 0.09828746600574752 0  0.5033747251853009 0.1053168400545054 0  0.490239763640672 0.1123107707868644 0  0.5553456087993827 0.08636778871811207 0  0.3015616164372162 0.1986147452440343 0  0.4639393406462977 0.1261305206382355 0  0.4771008941044324 0.1192540161451596 0  0.3917866875261068 0.1695499501212367 0  0.3592847861876168 0.1823989136698448 0  0.4468230925430149 0.1349098942805684 0  0.437479252536001 0.1396060517526587 0  0.4054804950545515 0.1635109664348943 0  0.2556995170323855 0.1960186744928802 0  0.2550739231116309 0.2033913194368832 0  0.4281193908370075 0.1527678836441522 0  0.3698778385439427 0.1702414379781912 0  0.3379121049623841 0.1813041808176688 0  0.2807127641402774 0.1940238227627332 0  0.2904662529583995 0.1926619551387409 0  0.4189844080066991 0.1573384956272866 0  0.3469329836139236 0.1783877364310507 0  0.3791934551386973 0.166318029900421 0  0.3150453387605784 0.1877803845816097 0  0.5416768541798445 0.09357030059703891 0  0.538271391994207 0.08658475777007445 0  0.3164435331725524 0.1953816193493617 0  0.2706882757014356 0.1950073031143709 0  0.5644961264282509 0.08244670095409558 0  0.4243734945974789 0.1453082463895782 0  0.4152266708444005 0.1501469623033969 0  0.3401364157768564 0.189784077814903 0  0.2813375007400633 0.2027336908166664 0  0.2919461157563977 0.2012277226788337 0  0.3730185906003403 0.1779599289626838 0  0.3495752116867009 0.187134609250794 0  0.3824173964710214 0.1748841566456137 0  0.2645655667882125 0.1957065996110717 0  0.5704219790115439 0.07850066490190662 0  0.5111286718844159 0.1006236544692838 0  0.4979889271912967 0.1076409398719468 0  0.3074125128001011 0.1979067409361307 0  0.4848553164115613 0.1146166808973885 0  0.5503997390715766 0.08955170697608819 0  0.471711181264364 0.1215350679320912 0  0.4585746907393487 0.128355751623576
[...]
<PointData  Vectors="d"> 
<DataArray  type="Float64"  Name="d"  NumberOfComponents="3" format="ascii">-3.1204324581684800e-02 -1.2669065909253752e-01 0.0000000000000000e+00  -2.1695381396682544e-02 -1.2889654544650242e-01 0.0000000000000000e+00  0.0000000000000000e+00 0.0000000000000000e+00 0.0000000000000000e+00  0.0000000000000000e+00 0.0000000000000000e+00 0.0000000000000000e+00  -2.6449821929160285e-02 -1.2779365947652765e-01 0.0000000000000000e+00  0.0000000000000000e+00 0.0000000000000000e+00 0.0000000000000000e+00  0.0000000000000000e+00 0.0000000000000000e+00 0.0000000000000000e+00  0.0000000000000000e+00 0.0000000000000000e+00 0.0000000000000000e+00  0.0000000000000000e+00 0.0000000000000000e+00 0.0000000000000000e+00  1.7445688269162376e-04 -1.5332491794286667e-04 0.0000000000000000e+00  3.6593308970838371e-04 -3.2445086940702722e-04 0.0000000000000000e+00  5.5417165907057297e-04 -5.4365011240404626e-04 0.0000000000000000e+00  7.2675822566031507e-04 -9.0874515609414518e-04 0.0000000000000000e+00  8.8475061846019702e-04 -1.3536672118087691e-03 0.0000000000000000e+00  1.0417068376129333e-03 -1.9108517812748812e-03 0.0000000000000000e+00  1.1744259294956213e-03 -2.5265145346702214e-03 0.0000000000000000e+00  1.2799315030768898e-03 -3.2433609319568180e-03 0.0000000000000000e+00  1.3767935098889343e-03 -4.0410525297340785e-03 0.0000000000000000e+00  1.4515254268789750e-03 -4.9182756421882320e-03 0.0000000000000000e+00  1.5180750970312171e-03 -5.9035748216934138e-03 0.0000000000000000e+00  1.5801360117695515e-03 -6.9067737882151795e-03 0.0000000000000000e+00  1.5967384210271306e-03 -8.0268821718716826e-03 0.0000000000000000e+00  1.6249807825195908e-03 -9.2142948384913645e-03 0.0000000000000000e+00  1.6078153416223262e-03 -1.0456079885089195e-02 0.0000000000000000e+00  1.5772346047979260e-03 -1.1783982344231626e-02 0.0000000000000000e+00  1.5259935301213945e-03 -1.3159609426000521e-02 0.0000000000000000e+00  1.4478617980915453e-03 -1.4616365187172796e-02 0.0000000000000000e+00  1.3476928974216628e-03 -1.6105069390766318e-02 0.0000000000000000e+00  1.2266535500451477e-03 -1.7662450789569351e-02 0.0000000000000000e+00  1.0830880676398293e-03 -1.9266066663113406e-02 0.0000000000000000e+00  9.1582032660124878e-04 -2.0914531519069631e-02 0.0000000000000000e+00  7.3241208458403053e-04 -2.2639351645181452e-02 0.0000000000000000e+00  5.4463385200372429e-04 -2.4375298660757532e-02 0.0000000000000000e+00  3.2195703670584571e-04 -2.6175738590415061e-02 0.0000000000000000e+00  8.0930907099887838e-05 -2.8002041997124433e-02 0.0000000000000000e+00  -1.8024048385148909e-04 -2.9876993033224882e-02 0.0000000000000000e+00  -4.6060494078927226e-04 -3.1786012054764216e-02 0.0000000000000000e+00  -7.6204424738215667e-04 -3.3726226126331721e-02 0.0000000000000000e+00  -1.0794659318432785e-03 -3.5721083271118677e-02 0.0000000000000000e+00  -1.4000638887768301e-03 -3.7720719560793058e-02 0.0000000000000000e+00  -1.7541815372497068e-03 -3.9763031601193627e-02 0.0000000000000000e+00  -2.1214393328877579e-03 -4.1841103505869913e-02 0.0000000000000000e+00  -2.4936722559251441e-03 -4.3926800607683676e-02 0.0000000000000000e+00  -2.8939391820142026e-03 -4.6048623394798718e-02 0.0000000000000000e+00  -3.2967641971019088e-03 -4.8190453659074914e-02 0.0000000000000000e+00  -3.7216888905616972e-03 -5.0350811543077099e-02 0.0000000000000000e+00  -4.1537644504607615e-03 -5.2536447415550185e-02 0.0000000000000000e+00  -4.6021143707214310e-03 -5.4732923475512077e-02 0.0000000000000000e+00  -5.0637711998785520e-03 -5.6948275396376903e-02 0.0000000000000000e+00  -5.5333246048067126e-03 -5.9176994673282086e-02 0.0000000000000000e+00  -6.0133334443627845e-03 -6.1420272560921800e-02 0.0000000000000000e+00  -6.5064884113976394e-03 -6.3674810961463060e-02 0.0000000000000000e+00  -7.0059977517377284e-03 -6.5939778205333408e-02 0.0000000000000000e+00  -7.5145127799509407e-03 -6.8216043979764315e-02 0.0000000000000000e+00  -8.0333882431950481e-03 -7.0500743379835085e-02 0.0000000000000000e+00  -8.5576005080345956e-03 -7.2793027478194425e-02 0.0000000000000000e+00  -9.0884707303228295e-03 -7.5093734027823877e-02 0.0000000000000000e+00  -9.6263104117446322e-03 -7.7400274521576801e-02 0.0000000000000000e+00  -1.0167438872075987e-02 -7.9712418446503841e-02 0.0000000000000000e+00  -1.0712590326858661e-02 -8.2030596564112185e-02 0.0000000000000000e+00  -1.1261952839195191e-02 -8.4353273963151620e-02 0.0000000000000000e+00  -1.1812579141281282e-02 -8.6679886725858357e-02 0.0000000000000000e+00  -1.2364960670376830e-02 -8.9010710307408800e-02 0.0000000000000000e+00  -1.2919160748246701e-02 -9.1344881996841154e-02 0.0000000000000000e+00  -1.3472905715494353e-02 -9.3681779240460075e-02 0.0000000000000000e+00  -1.4026622272423546e-02 -9.6021309979206881e-02 0.0000000000000000e+00  -1.4580071673348859e-02 -9.8362943308577713e-02 0.0000000000000000e+00  -1.5133467372475718e-02 -1.0070622765911856e-01 0.0000000000000000e+00  -1.5685660687562816e-02 -1.0305186663451267e-01 0.0000000000000000e+00  -1.6235704624962696e-02 -1.0539890600797036e-01 0.0000000000000000e+00  -1.6785512635299777e-02 -1.0774571609337266e-01 0.0000000000000000e+00  -1.7333816143586436e-02 -1.1009445204329128e-01 0.0000000000000000e+00  -1.7880637234403376e-02 -1.1244313609335158e-01 0.0000000000000000e+00  -1.8426943674895301e-02 -1.1479290309268403e-01 0.0000000000000000e+00  -1.8971999638498320e-02 -1.1714320094529027e-01 0.0000000000000000e+00  -1.9517052651336249e-02 -1.1949357023789065e-01 0.0000000000000000e+00  -2.0061561895433094e-02 -1.2184442525788898e-01 0.0000000000000000e+00  -2.0605870828048368e-02 -1.2419521556136955e-01 0.0000000000000000e+00  -2.1150566586611109e-02 -1.2654586040830773e-01 0.0000000000000000e+00  -3.0658954733475352e-02 -1.2433975273712392e-01 0.0000000000000000e+00  -3.0113766776802723e-02 -1.2198829863295381e-01 0.0000000000000000e+00  -2.9568719844218005e-02 -1.1963647064215320e-01 0.0000000000000000e+00  -2.9023464789186770e-02 -1.1728398904105231e-01 0.0000000000000000e+00  -2.8477500811591484e-02 -1.1493111652088991e-01 0.0000000000000000e+00  -2.7931131839359975e-02 -1.1257768475660154e-01 0.0000000000000000e+00  -2.7383098886771016e-02 -1.1022413476344943e-01 0.0000000000000000e+00  -2.6833270848320743e-02 -1.0787023141878423e-01 0.0000000000000000e+00  -2.6282172298617183e-02 -1.0551663297754328e-01 0.0000000000000000e+00  -2.5728238646051262e-02 -1.0316392949170697e-01 0.0000000000000000e+00  -2.5172622398772913e-02 -1.0081162934694084e-01 0.0000000000000000e+00  -2.4614493422519760e-02 -9.8461691968240700e-02 0.0000000000000000e+00  -2.4052793278122583e-02 -9.6114369469430999e-02 0.0000000000000000e+00  -2.3489780513822202e-02 -9.3767377739595717e-02 0.0000000000000000e+00  -2.2924510900282156e-02 -9.1425261142963857e-02 0.0000000000000000e+00  -2.2356257526481561e-02 -8.9088354228952560e-02 0.0000000000000000e+00  -2.1786731661103738e-02 -8.6752839917297445e-02 0.0000000000000000e+00  -2.1216975218607548e-02 -8.4424653791722565e-02 0.0000000000000000e+00  -2.0645871547682961e-02 -8.2104189825703722e-02 0.0000000000000000e+00  -2.0073730600460946e-02 -7.9786152764911397e-02 0.0000000000000000e+00  -1.9504318611093460e-02 -7.7477662767612421e-02 0.0000000000000000e+00  -1.8935742669034663e-02 -7.5179564795549172e-02 0.0000000000000000e+00  -1.8366489822056315e-02 -7.2884844401931229e-02 0.0000000000000000e+00  -1.7803345549909391e-02 -7.0601741367705168e-02 0.0000000000000000e+00  -1.7243054602179640e-02 -6.8332078927169596e-02 0.0000000000000000e+00  -1.6683309262753642e-02 -6.6067916081390204e-02 0.0000000000000000e+00  -1.6130040792532913e-02 -6.3816271297612442e-02 0.0000000000000000e+00  -1.5582202630077474e-02 -6.1582234219083612e-02 0.0000000000000000e+00  -1.5034833602086834e-02 -5.9351820600576262e-02 0.0000000000000000e+00  -1.4500153777038130e-02 -5.7138481622599407e-02 0.0000000000000000e+00  -1.3968676079549047e-02 -5.4949501650356274e-02 0.0000000000000000e+00  -1.3437079195097746e-02 -5.2766771843057003e-02 0.0000000000000000e+00  -1.2917352945339510e-02 -5.0608014077438090e-02 0.0000000000000000e+00  -1.2403994421236688e-02 -4.8461902493838326e-02 0.0000000000000000e+00  -1.1897135857305764e-02 -4.6338516997271068e-02 0.0000000000000000e+00  -1.1402019277051858e-02 -4.4243550907156606e-02 0.0000000000000000e+00  -1.0904921179238991e-02 -4.2166680499577308e-02 0.0000000000000000e+00  -1.0421878306892802e-02 -4.0119315675777992e-02 0.0000000000000000e+00  -9.9419132585090789e-03 -3.8099968865973152e-02 0.0000000000000000e+00  -9.4688676295134489e-03 -3.6113109424482322e-02 0.0000000000000000e+00  -9.0082408318674385e-03 -3.4160300279018931e-02 0.0000000000000000e+00  -8.5625921246341129e-03 -3.2231657524173549e-02 0.0000000000000000e+00  -8.1302871637429497e-03 -3.0342523140240225e-02 0.0000000000000000e+00  -7.6891718243954519e-03 -2.8487088072889112e-02 0.0000000000000000e+00  -7.2766766984290005e-03 -2.6673301672536863e-02 0.0000000000000000e+00  -6.8611519797625187e-03 -2.4909428538200922e-02 0.0000000000000000e+00  -6.4692008638082979e-03 -2.3175791276619763e-02 0.0000000000000000e+00  -6.0861062355928733e-03 -2.1498476197975677e-02 0.0000000000000000e+00  -5.7201782274421626e-03 -1.9852638049948693e-02 0.0000000000000000e+00  -5.3697299456151575e-03 -1.8261188070312497e-02 0.0000000000000000e+00  -5.0046155982271367e-03 -1.6713058694524458e-02 0.0000000000000000e+00  -4.6737673964587492e-03 -1.5219415103893283e-02 0.0000000000000000e+00  -4.3325921968627177e-03 -1.3793559159842855e-02 0.0000000000000000e+00  -4.0276367458327604e-03 -1.2412491241000497e-02 0.0000000000000000e+00  -3.7297425418781711e-03 -1.1117922106647790e-02 0.0000000000000000e+00  -3.4275581449514469e-03 -9.8434172182821182e-03 0.0000000000000000e+00  -3.1535767161046456e-03 -8.6608123768452776e-03 0.0000000000000000e+00  -2.8575688107640778e-03 -7.5443663128922245e-03 0.0000000000000000e+00  -2.6019555075551095e-03 -6.4877284273886773e-03 0.0000000000000000e+00  -2.3510769474607259e-03 -5.5251002400915940e-03 0.0000000000000000e+00  -2.1152206017959630e-03 -4.6131994507078262e-03 0.0000000000000000e+00  -1.8927810435675077e-03 -3.7915489230651331e-03 0.0000000000000000e+00  -1.6477776770422439e-03 -3.0330898822889299e-03 0.0000000000000000e+00  -1.4443406847580915e-03 -2.3566042369020375e-03 0.0000000000000000e+00  -1.2129781190023943e-03 -1.7651230023571580e-03 0.0000000000000000e+00  -1.0135239176094334e-03 -1.2730336331927047e-03 0.0000000000000000e+00  -7.8988442174480773e-04 -8.6729554775427480e-04 0.0000000000000000e+00  -5.8837456522959491e-04 -5.2509807677256182e-04 0.0000000000000000e+00  -3.9157571767561996e-04 -2.8603017308618633e-04 0.0000000000000000e+00  -1.9431062443064413e-04 -1.6435915369200117e-04 0.0000000000000000e+00  -2.8827005445442436e-02 -1.2724218433936227e-01 0.0000000000000000e+00  -2.4072588263611781e-02 -1.2834521437555044e-01 0.0000000000000000e+00  1.5367212521149954e-05 -1.5721861426079898e-04 0.0000000000000000e+00  -2.0153626293677580e-02 -1.0075338421337930e-01 0.0000000000000000e+00  -2.2962449877097543e-02 -1.1268251524778361e-01 0.0000000000000000e+00  4.3851802481818617e-06 -1.5755903522341665e-03 0.0000000000000000e+00  -1.6881586393333224e-02 -8.6870337077050247e-02 0.0000000000000000e+00  -1.8567043199553032e-02 -9.3879603953742841e-02 0.0000000000000000e+00  -3.6067114856556238e-04 -3.9619770462863378e-03 0.0000000000000000e+00  -2.4769404950425414e-02 -1.1955238374139295e-01 0.0000000000000000e+00  -5.4049497839896209e-04 -7.0513403691789718e-03 0.0000000000000000e+00  -1.1554618758447916e-03 -1.3865232620118387e-02 0.0000000000000000e+00  -1.5197375448315380e-02 -7.9902433802593834e-02 0.0000000000000000e+00  -2.2434380480112564e-03 -1.9507805491451698e-02 0.0000000000000000e+00  -1.3532985604259098e-02 -7.2990803451690942e-02 0.0000000000000000e+00  -3.1287522192764905e-03 -2.4809567343001347e-02 0.0000000000000000e+00  -4.4529226950391562e-03 -3.1975392278430811e-02 0.0000000000000000e+00  -1.2033047408908070e-02 -6.5943755039786972e-02 0.0000000000000000e+00  -1.0260437727596460e-02 -5.9254529746745332e-02 0.0000000000000000e+00  -5.5511959398632620e-03 -3.7737091778891826e-02 0.0000000000000000e+00  -6.9043056411950722e-03 -4.4057907703731407e-02 0.0000000000000000e+00  -8.7109033902881532e-03 -5.2354079851704399e-02 0.0000000000000000e+00  -7.9188683271745846e-04 -9.3315241570100394e-03 0.0000000000000000e+00  -2.1862668862374732e-02 -1.0800584916145466e-01 0.0000000000000000e+00  -7.7503363560873992e-03 -4.7696822248107500e-02 0.0000000000000000e+00  -1.7760396713778731e-03 -1.6777644379988948e-02 0.0000000000000000e+00  -3.7833695819039551e-03 -2.8726400059429086e-02 0.0000000000000000e+00  -1.4964546216808774e-04 -2.6907160012864914e-03 0.0000000000000000e+00  -2.6305683261192696e-02 -1.2337836833395380e-01 0.0000000000000000e+00  8.6058149591043134e-05 -6.9918920480962685e-04 0.0000000000000000e+00  -1.0014007549435910e-02 -6.2847332028530475e-02 0.0000000000000000e+00  -1.3228259424821405e-02 -7.6529309259218622e-02 0.0000000000000000e+00  -1.4895434588086461e-02 -8.3472720079504542e-02 0.0000000000000000e+00  -5.9154737021629000e-03 -3.4718575822970922e-02 0.0000000000000000e+00  -1.1594220714430430e-02 -6.9647768934241724e-02 0.0000000000000000e+00  -1.6575799592730790e-02 -9.0462905405896840e-02 0.0000000000000000e+00  -8.5045892595307787e-03 -5.6151912050625002e-02 0.0000000000000000e+00  -1.8252781093828958e-02 -9.7486075418635090e-02 0.0000000000000000e+00  -7.1843074080327239e-03 -4.0751158997440216e-02 0.0000000000000000e+00  -3.4215573677297854e-03 -2.1874822866070631e-02 0.0000000000000000e+00  -8.2380160266290307e-04 -5.5683298759336411e-03 0.0000000000000000e+00  -2.4795169499782936e-02 -1.1578695845514851e-01 0.0000000000000000e+00  -2.2335301613785916e-02 -1.0390824652674041e-01 0.0000000000000000e+00  -3.0112848253260036e-04 -1.1483735774409554e-02 0.0000000000000000e+00  -1.8922150453245825e-02 -1.0368839639778055e-01 0.0000000000000000e+00  -2.1681980645933004e-03 -1.1815837211748417e-02 0.0000000000000000e+00  -2.1400699462075904e-02 -9.7837715658663491e-02 0.0000000000000000e+00  -1.9714942921664237e-02 -9.0808341609900339e-02 0.0000000000000000e+00  -1.8018487349450132e-02 -8.3814410877545348e-02 0.0000000000000000e+00  -2.2125922069326572e-02 -1.1750702961747664e-01 0.0000000000000000e+00  3.8051817226140327e-04 -5.2600730915594316e-03 0.0000000000000000e+00  -1.4656076110113448e-02 -6.9994661026168525e-02 0.0000000000000000e+00  -1.6325939768834601e-02 -7.6871165519246609e-02 0.0000000000000000e+00  -3.3267191456562506e-03 -3.4324868214359913e-02 0.0000000000000000e+00  -1.2219805447950033e-03 -2.1475904665750230e-02 0.0000000000000000e+00  -1.2559788302699654e-02 -6.1215287383830801e-02 0.0000000000000000e+00  -1.1453329986679474e-02 -5.6519129911741989e-02 0.0000000000000000e+00  -4.4643287340705405e-03 -4.0363851900704718e-02 0.0000000000000000e+00  -8.6782947811545595e-05 -6.7162532849268945e-05 0.0000000000000000e+00  5.9187080691142957e-05 -5.1323562228231327e-05 0.0000000000000000e+00  -6.6837568094614361e-03 -5.1005874120003257e-02 0.0000000000000000e+00  -4.7583630644672673e-03 -2.5984804257664109e-02 0.0000000000000000e+00  -2.7137316240464348e-03 -1.4742611376320202e-02 0.0000000000000000e+00  -5.8740397870593077e-04 -2.0229694313169105e-03 0.0000000000000000e+00  -8.0238578558981637e-04 -3.4196777261873384e-03 0.0000000000000000e+00  -5.6861255752901759e-03 -4.6614712178667812e-02 0.0000000000000000e+00  -3.2291921189894607e-03 -1.7659055763137081e-02 0.0000000000000000e+00  -5.5753605335721237e-03 -2.9728762293814930e-02 0.0000000000000000e+00  -1.5870297777774935e-03 -8.3790739817602693e-03 0.0000000000000000e+00  -2.0478146925496602e-02 -1.1021134866286021e-01 0.0000000000000000e+00  -2.4169995707769846e-02 -1.0949143459106328e-01 0.0000000000000000e+00  2.0402958923957599e-04 -8.4863363931074430e-03 0.0000000000000000e+00  -4.0043771932661803e-04 -9.6234121821292941e-04 0.0000000000000000e+00  -2.2805311212109526e-02 -1.2227608714898673e-01 0.0000000000000000e+00  -1.0294462046791977e-02 -5.0156899565673124e-02 0.0000000000000000e+00  -9.1029795633981499e-03 -4.5728735790509352e-02 0.0000000000000000e+00  -1.1953530649589193e-04 -1.5009972214189265e-02 0.0000000000000000e+00  4.6900806397000820e-04 -2.0405509645992320e-03 0.0000000000000000e+00  5.3841244252541480e-04 -3.5532290282618583e-03 0.0000000000000000e+00  -1.7528020101528975e-03 -2.6574925082171630e-02 0.0000000000000000e+00  -3.4643720318576721e-04 -1.8040732067836521e-02 0.0000000000000000e+00  -2.1108923582083723e-03 -3.0291184673022300e-02 0.0000000000000000e+00  -2.4891975729278670e-04 -5.0237468756573458e-04 0.0000000000000000e+00  -2.3902785354745461e-02 -1.2554087745701159e-01 0.0000000000000000e+00  -2.0968589161198564e-02 -9.5020855435803311e-02 0.0000000000000000e+00  -1.9276916737476089e-02 -8.8003570033138606e-02 0.0000000000000000e+00  4.2018723983534379e-04 -6.4400624511243678e-03 0.0000000000000000e+00  -1.7579110400365212e-02 -8.1027829007697852e-02 0.0000000000000000e+00  -2.1260564501858578e-02 -1.1479509641118796e-01 0.0000000000000000e+00  -1.5891828430710082e-02 -7.4109441972991935e-02 0.0000000000000000e+00  -1.4240506790277611e-02 -6.7284495267412786e-02 0.0000000000000000e+00  -1.3557571348417887e-03 -2.3524341565996549e-02 0.0000000000000000e+00  -1.3400763902131182e-02 -6.3788729234039249e-02 0.0000000000000000e+00  -3.5722333008975965e-03 -3.6700472209388060e-02 0.0000000000000000e+00  -1.1076230113361308e-02 -5.3881715148283750e-02 0.0000000000000000e+00  -4.7475345095970237e-03 -4.2845749144713195e-02 0.0000000000000000e+00  -2.7010565185659040e-02 -1.2090055943438738e-01 0.0000000000000000e+00  -1.9280865009389029e-02 -1.0648318510203643e-01 0.0000000000000000e+00  -2.0650066239665289e-03 -1.0286671780056126e-02 0.0000000000000000e+00  3.8451781741559291e-04 -1.0667155806415001e-03 0.0000000000000000e+00  2.0758111977761318e-04 -4.0517000661607157e-04 0.0000000000000000e+00  -8.4372007757314987e-03 -6.0927562939406404e-02 0.0000000000000000e+00  -8.5446828994447908e-03 -4.2497083038008032e-02 0.0000000000000000e+00  -9.9781170142270066e-03 -6.7706296434202617e-02 0.0000000000000000e+00  -1.4946434230148319e-02 -8.8460421584085736e-02 0.0000000000000000e+00  -1.1626775406902200e-02 -7.4553222046190123e-02 0.0000000000000000e+00  -1.3275589235225253e-02 -8.1482321527481402e-02 0.0000000000000000e+00  -6.9792673937788020e-03 -3.6583934105997064e-02 0.0000000000000000e+00  -7.0591708847631317e-03 -5.4294165585042388e-02 0.0000000000000000e+00  -4.4837459437246348e-03 -2.3371967317060028e-02 0.0000000000000000e+00  -6.4682256743875486e-03 -3.2665084748543745e-02 0.0000000000000000e+00  -1.7651256856327246e-02 -1.0002422065274387e-01 0.0000000000000000e+00  -3.9299911435812388e-03 -2.0147466936238426e-02 0.0000000000000000e+00  -1.6930823127283015e-02 -9.5307890460124389e-02 0.0000000000000000e+00  -1.4103727551333860e-03 -6.4645781857261232e-03 0.0000000000000000e+00  -1.1429105362546089e-03 -4.6442009425473494e-03 0.0000000000000000e+00  -2.6327638815582817e-02 -1.1763271084955892e-01 0.0000000000000000e+00  -2.5409335874055528e-02 -1.1324698973689509e-01 0.0000000000000000e+00  -1.4863665046882338e-02 -8.6056620592743147e-02 0.0000000000000000e+00  -1.3194078261081260e-02 -7.9093950085501158e-02 0.0000000000000000e+00  -9.8214920114633592e-03 -6.5297330492334008e-02 0.0000000000000000e+00  -1.6412728419978029e-02 -9.3016122447146063e-02 0.0000000000000000e+00  -1.1552103581254435e-02 -7.2186235518536812e-02 0.0000000000000000e+00  -8.2623274803516212e-03 -5.8570360781318026e-02 0.0000000000000000e+00  -7.3764789416537330e-03 -3.8546852679582418e-02 0.0000000000000000e+00  2.8045062569101285e-04 -1.0312741239926310e-02 0.0000000000000000e+00  -2.3729017335530456e-02 -1.0594406224162206e-01 0.0000000000000000e+00  -2.2608663236336479e-02 -1.0149328338708143e-01 0.0000000000000000e+00  3.45