<?xml version="1.0"?>
<VTKFile type="UnstructuredGrid"  version="0.1"  >
<UnstructuredGrid>
<Piece  NumberOfPoints="439" NumberOfCells="725">
<Points>
<DataArray  type="Float64"  NumberOfComponents="3"  format="ascii">0.566455056562315 0.06574514345195152 0  0.5760585980771069 0.08317887303836663 0  0.2489897949 0.21 0  0.2489897949 0.19 0  0.5712566631687767 0.07446233828798525 0  0.2496355385699469 0.2060260530378829 0  0.249959460510575 0.2020130349814059 0  0.2499594605105767 0.1979869650186357 0  0.24963553856995 0.1939739469621422 0  0.2540998726996896 0.2098533716774982 0  0.2592271592804589 0.2096912581828223 0  0.2643515367990369 0.2094831853748907 0  0.2694613389382463 0.2091362517572145 0  0.2745576246480422 0.2087128887324108 0  0.2796531438439222 0.2081819218774973 0  0.2847258910670775 0.2075945212390618 0  0.2897730084629961 0.2069094681888538 0  0.2948125832917837 0.2061461101388306 0  0.2998314947325186 0.2053051768431395 0  0.3048433850567223 0.2043583575243199 0  0.3098516179026907 0.2033935229723902 0  0.3148165347720224 0.2023128374538139 0  0.3197941356919878 0.2011645766353103 0  0.3247275025549937 0.199961199142409 0  0.3296483822970606 0.1986702090987817 0  0.3345491593074051 0.1973301192639868 0  0.3394230570777182 0.1959066647412911 0  0.3442743664762252 0.1944487291565386 0  0.3491037111318419 0.1929188599246648 0  0.3539088754309243 0.1913395155382817 0  0.3586879143604279 0.1897117041798107 0  0.363446472503903 0.1879999339122912 0  0.368200485618472 0.186274730915679 0  0.3729141675653682 0.1844784979395515 0  0.3776064850290443 0.1826532387456049 0  0.3822743678820189 0.18077398970378 0  0.3869191100867908 0.1788575186483141 0  0.3915386840213154 0.1769078076686195 0  0.3961357029424725 0.1749024158880136 0  0.4007271091226688 0.1728912253651199 0  0.4052787979969256 0.1708403306560045 0  0.4098087356046626 0.1687569937358324 0  0.4143312685702782 0.1666658502190034 0  0.4188181427694903 0.16454681034921 0  0.4232956989003814 0.1624081837967433 0  0.4277481335536529 0.1602590477546751 0  0.4321867321256241 0.1580878395647809 0  0.4366084102828496 0.1559122658808177 0  0.441014682818693 0.1537237401546359 0  0.4454131307980722 0.1515270560002017 0  0.4498024412503297 0.1493223563557517 0  0.4541818539847769 0.1471139057960774 0  0.458559131194403 0.1449023139269987 0  0.4629332043933299 0.1426873747758247 0  0.4673041221396794 0.1404717673971247 0  0.4716764846299182 0.1382557702012428 0  0.4760502978695367 0.1360381868444088 0  0.4804238146346569 0.1338200693143487 0  0.4847992651727772 0.1316006645709411 0  0.4891767034147623 0.1293777873290738 0  0.4935526687412637 0.1271517875666978 0  0.4979282794202244 0.1249211762947768 0  0.502303692314904 0.122683474626097 0  0.50667502728334 0.1204398040983127 0  0.5110441196872495 0.1181877773584347 0  0.5154108616719445 0.1159249949983925 0  0.5197729745131591 0.1136511450908065 0  0.5241317298841534 0.1113688893736294 0  0.5284831028869305 0.1090735767254164 0  0.5328283211640021 0.1067614616333303 0  0.5371740444211273 0.1044441491344391 0  0.5415116588437708 0.1021107155889825 0  0.5458479755022935 0.09976407887880875 0  0.5501760878041604 0.09741063183794377 0  0.5544973731922457 0.09504502915092329 0  0.5588171956685437 0.09267732639908552 0  0.5631301137100444 0.09030461999911243 0  0.567440338606828 0.08792803614067439 0  0.5717502950792064 0.08555356377449995 0  0.5621456365450116 0.06811811915153472 0  0.5578385744119797 0.07049052319417472 0  0.5535328712202324 0.07286349545938146 0  0.5492312046675603 0.07523362566704733 0  0.5449310705826 0.07759787511201079 0  0.5406348418035091 0.0799579249163356 0  0.5363398464345189 0.08230572348257666 0  0.5320478593586397 0.08464200027148831 0  0.5277537444803825 0.08696781254275884 0  0.5234565591540921 0.08927679346292339 0  0.5191584327512964 0.09157505854833535 0  0.514851210350028 0.0938586642853419 0  0.5105362633273565 0.09612552385137242 0  0.506222036127035 0.09838666913854033 0  0.5018951013248598 0.1006353390311263 0  0.4975602244698151 0.102872798173833 0  0.4932240007090137 0.1051066286962476 0  0.4888768574448807 0.1073342662821837 0  0.4845254813241687 0.1095572656813415 0  0.4801727291626935 0.1117791921545491 0  0.4758146585114079 0.1139992471717595 0  0.4714578115695257 0.1162175240158093 0  0.4671012202437228 0.1184364538945393 0  0.4627441664047325 0.1206528765297777 0  0.4583918256014357 0.1228644638895761 0  0.4540415664741193 0.1250756046009474 0  0.4496916335874176 0.1272806643464554 0  0.4453442445556989 0.1294735306007538 0  0.4409987265850718 0.1316650336776773 0  0.4366467640765795 0.1338428227691485 0  0.4322913356585109 0.1359987297652913 0  0.4279374031375427 0.1381488254015204 0  0.4235700625972667 0.1402785031804561 0  0.4191953718489538 0.1423964281236937 0  0.41480968442517 0.1444950449779543 0  0.4104064218061795 0.1465694835328271 0  0.4060018445710736 0.1486274606513115 0  0.4015786016630826 0.1506612985788206 0  0.3971489782496785 0.152669875499498 0  0.3927092900821834 0.1546487093292297 0  0.3882553549216308 0.1565959690903508 0  0.3837856009353017 0.1585212255077071 0  0.3793012207989946 0.1604062302828261 0  0.3748254810967209 0.1622544467717474 0  0.3703188351108135 0.1640585191174886 0  0.3658133495145083 0.1658070137010745 0  0.3612812714887492 0.167522405294419 0  0.3567361817797433 0.1691755887630356 0  0.3521703825207892 0.1707948856147145 0  0.3475843596344364 0.1723561706709177 0  0.343011004069398 0.1738712596629533 0  0.3383987149797356 0.1753310094640043 0  0.3337947651658363 0.1767209653879006 0  0.3291524785241035 0.1780663661762092 0  0.3245021161836908 0.1793240926367143 0  0.3198557325925238 0.1805619699079983 0  0.3151804267273268 0.1817067233886052 0  0.3105263024963944 0.1827854000758616 0  0.3058314512078713 0.1838040529620777 0  0.3011312373434609 0.1847298882840336 0  0.2964154533305703 0.1856057480155508 0  0.2916861561240645 0.1863933655900399 0  0.2869783338101277 0.1871192476520158 0  0.2822299861819001 0.187765825207433 0  0.277507750150793 0.1883294020972029 0  0.2727540517197608 0.1887975547770562 0  0.2680224496719784 0.1891823852433686 0  0.2632689266924036 0.1895067607868346 0  0.258510265460635 0.1897329144052397 0  0.2537518035074811 0.1898468735205165 0  0.5688558955608497 0.07010383343987622 0  0.5736569609086836 0.07882090368445706 0  0.2589913749217748 0.2004044179888181 0  0.5216686766416794 0.1014714293406003 0  0.5435719094138995 0.08965756934989551 0  0.2774648681367763 0.1993001933513086 0  0.4958686850813916 0.1147614273617933 0  0.5089324576931558 0.1080330760349286 0  0.2941779916646804 0.1955189349365201 0  0.5560328368723801 0.08233311878847928 0  0.3099112758925102 0.1932305235271178 0  0.3359110494496209 0.1874784869243959 0  0.4827716049512921 0.1214413916072152 0  0.3531214184530823 0.1811197731273143 0  0.4696710345281501 0.1281038436049702 0  0.3676669109287254 0.1758929989325654 0  0.3854139655531789 0.168720436972282 0  0.4561014362070958 0.1346013020447609 0  0.4432250169105807 0.1416085406262482 0  0.3986957657096534 0.1630417511225483 0  0.4124171416971968 0.1566324321886439 0  0.4295355202420074 0.1483938865270272 0  0.3195057708120147 0.1910668957505733 0  0.5350058898714674 0.09433479764177578 0  0.4199959839264916 0.1528677058472223 0  0.3450712022813032 0.183952374738751 0  0.3776078805458873 0.1721242473990091 0  0.2859359366749424 0.197484418030801 0  0.5626780435120067 0.07719553199391103 0  0.2680781504814296 0.2010132873807121 0  0.450762756199851 0.1402977376058824 0  0.4769488426915331 0.1270034747505818 0  0.4900586293604563 0.1203342451747044 0  0.3913319229150335 0.1637345317388235 0  0.4638496310037662 0.1336612702936195 0  0.5031528798116368 0.1136328991827668 0  0.4376485586300819 0.1468783680764292 0  0.5162070949224461 0.1068628634376326 0  0.404794054881409 0.1577012704224016 0  0.3593634729547426 0.1765404990130253 0  0.302596145340303 0.1924370145935637 0  0.5486455691557156 0.08435933652571091 0  0.5267224463438417 0.095559067146993 0  0.3279298644338973 0.1918392450996863 0  0.5280755915913768 0.1023804060816762 0  0.328159957697819 0.1848069162954384 0  0.5152971005221501 0.1004889071784398 0  0.5022879396912914 0.1072606591132835 0  0.4892260418862578 0.1139610119775775 0  0.5534818306368023 0.08865661896319088 0  0.3015610856840256 0.1988556506210108 0  0.4630527774137524 0.1272868106670911 0  0.4761369069638759 0.1206298283806413 0  0.3917270482899735 0.1702155444984639 0  0.3593415102613592 0.1830451770253715 0  0.4461264297614391 0.1358673325388071 0  0.4369160457418811 0.1404844209250904 0  0.4053195992777908 0.1641580751828529 0  0.2557060756089037 0.1960238876085871 0  0.2550726084796567 0.2033939027137762 0  0.4276880770777762 0.1534630386887473 0  0.3699377101949511 0.1709489792039019 0  0.3380176027058526 0.1818418064553385 0  0.2807500693354389 0.1941286573415959 0  0.2905130321147224 0.1928295046774934 0  0.4186787367867395 0.1579987840228484 0  0.347042913564419 0.1789881257001036 0  0.379208801899136 0.1670363902305202 0  0.3151225997903997 0.1881394885271513 0  0.5400711677057205 0.09587405526468284 0  0.5366685684792287 0.08900922051431677 0  0.3164578339791379 0.1957414119603098 0  0.2707159091953465 0.1950603301923595 0  0.5624576049943039 0.08467819124570738 0  0.4240008286750216 0.1461085205332573 0  0.4149680101895863 0.1508961044666453 0  0.3401773477103402 0.1903212360368412 0  0.2813252064167784 0.2028352976558576 0  0.2919341803843949 0.2013972098075349 0  0.3730450587117015 0.1786385107234524 0  0.3496234119925365 0.1877299585108775 0  0.3824064932083042 0.1755577629202019 0  0.264583890681192 0.1957355713552227 0  0.568251430535775 0.08071093270927698 0  0.5099720341758779 0.1027384560573549 0  0.4969439222713209 0.1094762957311813 0  0.3074133953934163 0.1981930425091562 0  0.4838703019910688 0.116159261698312 0  0.5486384237110089 0.09184611547740378 0  0.4707814006290357 0.1228221062772505 0  0.4577422722475015 0.1294486706053
[...]
<PointData  Vectors="d"> 
<DataArray  type="Float64"  Name="d"  NumberOfComponents="3" format="ascii">-3.3544943437684889e-02 -1.2425485654804852e-01 0.0000000000000000e+00  -2.3941401922893072e-02 -1.2682112696163339e-01 0.0000000000000000e+00  0.0000000000000000e+00 0.0000000000000000e+00 0.0000000000000000e+00  0.0000000000000000e+00 0.0000000000000000e+00 0.0000000000000000e+00  -2.8743336831223557e-02 -1.2553766171201480e-01 0.0000000000000000e+00  0.0000000000000000e+00 0.0000000000000000e+00 0.0000000000000000e+00  0.0000000000000000e+00 0.0000000000000000e+00 0.0000000000000000e+00  0.0000000000000000e+00 0.0000000000000000e+00 0.0000000000000000e+00  0.0000000000000000e+00 0.0000000000000000e+00 0.0000000000000000e+00  1.6627209406041497e-04 -1.4662832250181618e-04 0.0000000000000000e+00  3.4975296920467869e-04 -3.0874181717776514e-04 0.0000000000000000e+00  5.3032478214483033e-04 -5.1681462510920777e-04 0.0000000000000000e+00  6.9632121571634080e-04 -8.6374824278552488e-04 0.0000000000000000e+00  8.4880121988526586e-04 -1.2871112675892861e-03 0.0000000000000000e+00  1.0005147101468065e-03 -1.8180781225026381e-03 0.0000000000000000e+00  1.1294562276838863e-03 -2.4054787609381792e-03 0.0000000000000000e+00  1.2327679179795032e-03 -3.0905318111462193e-03 0.0000000000000000e+00  1.3285370411315197e-03 -3.8538898611693551e-03 0.0000000000000000e+00  1.4036427762476710e-03 -4.6948231568605158e-03 0.0000000000000000e+00  1.4717273948224763e-03 -5.6416424756801217e-03 0.0000000000000000e+00  1.5361545351725880e-03 -6.6064770276097655e-03 0.0000000000000000e+00  1.5572656988858125e-03 -7.6871625461861692e-03 0.0000000000000000e+00  1.5910609132329388e-03 -8.8354233646897023e-03 0.0000000000000000e+00  1.5806220706204635e-03 -1.0038800857591020e-02 0.0000000000000000e+00  1.5576961070688734e-03 -1.1329790901218375e-02 0.0000000000000000e+00  1.5146674117844667e-03 -1.2669880736013219e-02 0.0000000000000000e+00  1.4447594764897067e-03 -1.4093335258708805e-02 0.0000000000000000e+00  1.3522631693675725e-03 -1.5551270843461333e-02 0.0000000000000000e+00  1.2378021193658576e-03 -1.7081140075335195e-02 0.0000000000000000e+00  1.0991607128297987e-03 -1.8660484461718280e-02 0.0000000000000000e+00  9.3439393671526563e-04 -2.0288295820189334e-02 0.0000000000000000e+00  7.4914637457196645e-04 -2.2000066087708766e-02 0.0000000000000000e+00  5.5935378352248350e-04 -2.3725269084321050e-02 0.0000000000000000e+00  3.2923002478940340e-04 -2.5521502060448401e-02 0.0000000000000000e+00  7.7741782856627045e-05 -2.7346761254395072e-02 0.0000000000000000e+00  -1.9818106979325811e-04 -2.9226010296220059e-02 0.0000000000000000e+00  -4.9724457064295269e-04 -3.1142481351685892e-02 0.0000000000000000e+00  -8.2147634174785887e-04 -3.3092192331380492e-02 0.0000000000000000e+00  -1.1682631261981291e-03 -3.5097584111986449e-02 0.0000000000000000e+00  -1.5206626516296594e-03 -3.7108774634880146e-02 0.0000000000000000e+00  -1.9127794829851977e-03 -3.9159669343995479e-02 0.0000000000000000e+00  -2.3266475808684135e-03 -4.1243006264167603e-02 0.0000000000000000e+00  -2.7479203208736051e-03 -4.3334149780996575e-02 0.0000000000000000e+00  -3.2048518272732945e-03 -4.5453189650790031e-02 0.0000000000000000e+00  -3.6711014020105433e-03 -4.7591816203256677e-02 0.0000000000000000e+00  -4.1624724543721540e-03 -4.9740952245324856e-02 0.0000000000000000e+00  -4.6676795880531410e-03 -5.1912160435219123e-02 0.0000000000000000e+00  -5.1898071364832781e-03 -5.4087734119182287e-02 0.0000000000000000e+00  -5.7273403063039293e-03 -5.6276259845364024e-02 0.0000000000000000e+00  -6.2726980325723642e-03 -5.8472943999798320e-02 0.0000000000000000e+00  -6.8271932859567605e-03 -6.0677643644248450e-02 0.0000000000000000e+00  -7.3915862571391116e-03 -6.2886094203922591e-02 0.0000000000000000e+00  -7.9581147531635702e-03 -6.5097686073001385e-02 0.0000000000000000e+00  -8.5278472598699293e-03 -6.7312625224175318e-02 0.0000000000000000e+00  -9.1007352191872972e-03 -6.9528232602875245e-02 0.0000000000000000e+00  -9.6721784345951793e-03 -7.1744229798757206e-02 0.0000000000000000e+00  -1.0242170900639393e-02 -7.3961813155591263e-02 0.0000000000000000e+00  -1.0812459841149692e-02 -7.6179930685651334e-02 0.0000000000000000e+00  -1.1380815008683818e-02 -7.8399335429058858e-02 0.0000000000000000e+00  -1.1947182472327185e-02 -8.0622212670926133e-02 0.0000000000000000e+00  -1.2515022851485438e-02 -8.2848212433302176e-02 0.0000000000000000e+00  -1.3083217878163219e-02 -8.5078823705223211e-02 0.0000000000000000e+00  -1.3651610689099888e-02 -8.7316525373903039e-02 0.0000000000000000e+00  -1.4224081426301232e-02 -8.9560195901687303e-02 0.0000000000000000e+00  -1.4798794728051103e-02 -9.1812222641565230e-02 0.0000000000000000e+00  -1.5375858448994579e-02 -9.4075005001607481e-02 0.0000000000000000e+00  -1.5957551313439598e-02 -9.6348854909193551e-02 0.0000000000000000e+00  -1.6542601648083192e-02 -9.8631110626370602e-02 0.0000000000000000e+00  -1.7135034350922548e-02 -1.0092642327458352e-01 0.0000000000000000e+00  -1.7733621779488715e-02 -1.0323853836666971e-01 0.0000000000000000e+00  -1.8331704228018501e-02 -1.0555585086556087e-01 0.0000000000000000e+00  -1.8937895511017693e-02 -1.0788928441101760e-01 0.0000000000000000e+00  -1.9545384558154660e-02 -1.1023592112119121e-01 0.0000000000000000e+00  -2.0161077961950977e-02 -1.1258936816205620e-01 0.0000000000000000e+00  -2.0783598279500257e-02 -1.1495497084907674e-01 0.0000000000000000e+00  -2.1407581508839972e-02 -1.1732267360091451e-01 0.0000000000000000e+00  -2.2038469172989718e-02 -1.1969538000088754e-01 0.0000000000000000e+00  -2.2672049981852845e-02 -1.2207196385932564e-01 0.0000000000000000e+00  -2.3305899215134152e-02 -1.2444643622550007e-01 0.0000000000000000e+00  -3.2910557749371440e-02 -1.2188188084846524e-01 0.0000000000000000e+00  -3.2273814176778347e-02 -1.1950947680582528e-01 0.0000000000000000e+00  -3.1635711662886867e-02 -1.1713650454061852e-01 0.0000000000000000e+00  -3.0993572509912380e-02 -1.1476637433295266e-01 0.0000000000000000e+00  -3.0349900889251397e-02 -1.1240212488798923e-01 0.0000000000000000e+00  -2.9702323962722207e-02 -1.1004207508366444e-01 0.0000000000000000e+00  -2.9053513626099207e-02 -1.0769427651742337e-01 0.0000000000000000e+00  -2.8401694996349015e-02 -1.0535799972851168e-01 0.0000000000000000e+00  -2.7752004168975435e-02 -1.0303218745724119e-01 0.0000000000000000e+00  -2.7105383789611585e-02 -1.0072320653707660e-01 0.0000000000000000e+00  -2.6459704486808035e-02 -9.8424941451664610e-02 0.0000000000000000e+00  -2.5823121182477000e-02 -9.6141335714658133e-02 0.0000000000000000e+00  -2.5194262499539592e-02 -9.3874476148627650e-02 0.0000000000000000e+00  -2.4564683994227846e-02 -9.1613330861459646e-02 0.0000000000000000e+00  -2.3947813090803041e-02 -8.9364660968873688e-02 0.0000000000000000e+00  -2.3338884240209384e-02 -8.7127201826166956e-02 0.0000000000000000e+00  -2.2731302295408113e-02 -8.4893371303752380e-02 0.0000000000000000e+00  -2.2134639853941849e-02 -8.2665733717816256e-02 0.0000000000000000e+00  -2.1542210269048966e-02 -8.0442734318658463e-02 0.0000000000000000e+00  -2.0951156724886909e-02 -7.8220807845450963e-02 0.0000000000000000e+00  -2.0365421670564137e-02 -7.6000752828240467e-02 0.0000000000000000e+00  -1.9778462906827460e-02 -7.3782475984190674e-02 0.0000000000000000e+00  -1.9191248527011526e-02 -7.1563546105460660e-02 0.0000000000000000e+00  -1.8604496660371984e-02 -6.9347123470222288e-02 0.0000000000000000e+00  -1.8013031758060932e-02 -6.7135536110423888e-02 0.0000000000000000e+00  -1.7419485179749044e-02 -6.4924395399052579e-02 0.0000000000000000e+00  -1.6825612360837867e-02 -6.2719335653544581e-02 0.0000000000000000e+00  -1.6229195686935993e-02 -6.0526469399246177e-02 0.0000000000000000e+00  -1.5630907951938423e-02 -5.8334966322322650e-02 0.0000000000000000e+00  -1.5039064754801322e-02 -5.6157177230851452e-02 0.0000000000000000e+00  -1.4450687467260784e-02 -5.4001270234708743e-02 0.0000000000000000e+00  -1.3860814282603891e-02 -5.1851174598479648e-02 0.0000000000000000e+00  -1.3284349117262891e-02 -4.9721496819543909e-02 0.0000000000000000e+00  -1.2715234159959270e-02 -4.7603571876306247e-02 0.0000000000000000e+00  -1.2157115878116574e-02 -4.5504955022045601e-02 0.0000000000000000e+00  -1.1616572791468724e-02 -4.3430516467172914e-02 0.0000000000000000e+00  -1.1077344320932029e-02 -4.1372539348688508e-02 0.0000000000000000e+00  -1.0556781523276861e-02 -3.9338701421179435e-02 0.0000000000000000e+00  -1.0042599231021026e-02 -3.7330124500502049e-02 0.0000000000000000e+00  -9.5384816928643871e-03 -3.5351290670770280e-02 0.0000000000000000e+00  -9.0486111477594330e-03 -3.3404030909649295e-02 0.0000000000000000e+00  -8.5745594284529891e-03 -3.1478774492292867e-02 0.0000000000000000e+00  -8.1151338591136379e-03 -2.9593769717173951e-02 0.0000000000000000e+00  -7.6470678557613442e-03 -2.7745553228252565e-02 0.0000000000000000e+00  -7.2099081360123820e-03 -2.5941480882511355e-02 0.0000000000000000e+00  -6.7715880266689269e-03 -2.4192986298925478e-02 0.0000000000000000e+00  -6.3598603467592569e-03 -2.2477594705580948e-02 0.0000000000000000e+00  -5.9611443501182077e-03 -2.0824411236964397e-02 0.0000000000000000e+00  -5.5831379034216111e-03 -1.9205114385285462e-02 0.0000000000000000e+00  -5.2253550841526138e-03 -1.7643829329082338e-02 0.0000000000000000e+00  -4.8549049435329507e-03 -1.6128740337046699e-02 0.0000000000000000e+00  -4.5233883275563177e-03 -1.4668990535995663e-02 0.0000000000000000e+00  -4.1835324358172445e-03 -1.3279034612099401e-02 0.0000000000000000e+00  -3.8820133719115555e-03 -1.1933633823790724e-02 0.0000000000000000e+00  -3.5885700066841226e-03 -1.0675907363285690e-02 0.0000000000000000e+00  -3.2911478921934037e-03 -9.4380300920016685e-03 0.0000000000000000e+00  -3.0226480517321270e-03 -8.2932766113948033e-03 0.0000000000000000e+00  -2.7329665770067743e-03 -7.2145999241385273e-03 0.0000000000000000e+00  -2.4840121598867456e-03 -6.1959470379222507e-03 0.0000000000000000e+00  -2.2404203186586493e-03 -5.2701117159663132e-03 0.0000000000000000e+00  -2.0123986259110035e-03 -4.3942519844492288e-03 0.0000000000000000e+00  -1.7978901267785641e-03 -3.6066344099601184e-03 0.0000000000000000e+00  -1.5619067350596178e-03 -2.8807523479842051e-03 0.0000000000000000e+00  -1.3664486576294495e-03 -2.2341747925670374e-03 0.0000000000000000e+00  -1.1448789830786092e-03 -1.6705979027970914e-03 0.0000000000000000e+00  -9.5477170846360721e-04 -1.2024452229438026e-03 0.0000000000000000e+00  -7.4256805060769185e-04 -8.1761475663141912e-04 0.0000000000000000e+00  -5.5228532454400486e-04 -4.9323921316532515e-04 0.0000000000000000e+00  -3.6714085067404478e-04 -2.6708559476026602e-04 0.0000000000000000e+00  -1.8179709817692038e-04 -1.5312647948351567e-04 0.0000000000000000e+00  -3.1144104439150288e-02 -1.2489616656010208e-01 0.0000000000000000e+00  -2.6343039091316550e-02 -1.2617909631551583e-01 0.0000000000000000e+00  1.7948390125533229e-05 -1.4797135402225779e-04 0.0000000000000000e+00  -2.1477557743628101e-02 -9.8528570659368736e-02 0.0000000000000000e+00  -2.4667880062916439e-02 -1.1031288923100319e-01 0.0000000000000000e+00  1.3475424973926794e-05 -1.4939985908840971e-03 0.0000000000000000e+00  -1.7980898295505324e-02 -8.5140915287298641e-02 0.0000000000000000e+00  -1.9748542800582213e-02 -9.1869266614168207e-02 0.0000000000000000e+00  -3.3290354108428356e-04 -3.7722559040185241e-03 0.0000000000000000e+00  -2.6745246266112382e-02 -1.1720986131185564e-01 0.0000000000000000e+00  -5.0156376441529962e-04 -6.7399350537800115e-03 0.0000000000000000e+00  -1.0891260922341614e-03 -1.3350974319000904e-02 0.0000000000000000e+00  -1.6246561308753901e-02 -7.8460951041874949e-02 0.0000000000000000e+00  -2.1601991178221498e-03 -1.8880226872746573e-02 0.0000000000000000e+00  -1.4515714615042497e-02 -7.1798499044114755e-02 0.0000000000000000e+00  -3.0704604618296827e-03 -2.4121238762803528e-02 0.0000000000000000e+00  -4.4742919570706675e-03 -3.1279563027800869e-02 0.0000000000000000e+00  -1.2884318842177580e-02 -6.4940370380908496e-02 0.0000000000000000e+00  -1.0932714773615813e-02 -5.8391459373661504e-02 0.0000000000000000e+00  -5.6577256921797542e-03 -3.7055906228376116e-02 0.0000000000000000e+00  -7.1339500467600438e-03 -4.3367567811461789e-02 0.0000000000000000e+00  -9.1664576224438146e-03 -5.1591875777650044e-02 0.0000000000000000e+00  -7.4150421365558642e-04 -8.9419884640665956e-03 0.0000000000000000e+00  -2.3399464236617751e-02 -1.0565631814358194e-01 0.0000000000000000e+00  -8.0707307622218238e-03 -4.6981198973601840e-02 0.0000000000000000e+00  -1.6947923452442935e-03 -1.6198720440686459e-02 0.0000000000000000e+00  -3.7647540200034051e-03 -2.8026847780442832e-02 0.0000000000000000e+00  -1.3240101726736607e-04 -2.5571265398171448e-03 0.0000000000000000e+00  -2.8444337666112849e-02 -1.2104938394096335e-01 0.0000000000000000e+00  8.8834335566901194e-05 -6.6183826601695444e-04 0.0000000000000000e+00  -1.0810684042776825e-02 -6.1952625722917917e-02 0.0000000000000000e+00  -1.4287431784812118e-02 -7.5246888578227311e-02 0.0000000000000000e+00  -1.6009062232742101e-02 -8.1916118154107334e-02 0.0000000000000000e+00  -5.9720431536440044e-03 -3.4015104932373010e-02 0.0000000000000000e+00  -1.2555226355723374e-02 -6.8589093035185650e-02 0.0000000000000000e+00  -1.7746228898408781e-02 -8.8617464146051692e-02 0.0000000000000000e+00  -9.0934644956836702e-03 -5.5371995252370750e-02 0.0000000000000000e+00  -1.9523430904438616e-02 -9.5387499891187208e-02 0.0000000000000000e+00  -7.3413283041225330e-03 -4.0048366248796034e-02 0.0000000000000000e+00  -3.3338531745926553e-03 -2.1209137658166604e-02 0.0000000000000000e+00  -7.7551232159303054e-04 -5.3126220776231817e-03 0.0000000000000000e+00  -2.6635402316107285e-02 -1.1339030014543938e-01 0.0000000000000000e+00  -2.3737409575214356e-02 -1.0156941132677368e-01 0.0000000000000000e+00  -2.6290878078691051e-04 -1.1032276426554350e-02 0.0000000000000000e+00  -2.0342310458369213e-02 -1.0145991548780010e-01 0.0000000000000000e+00  -2.0747693861797841e-03 -1.1352762135110731e-02 0.0000000000000000e+00  -2.2623984701661257e-02 -9.5636274485971173e-02 0.0000000000000000e+00  -2.0801728415673796e-02 -8.8864522551122233e-02 0.0000000000000000e+00  -1.9032209103864366e-02 -8.2164169686832336e-02 0.0000000000000000e+00  -2.3989700231906889e-02 -1.1521819937239783e-01 0.0000000000000000e+00  3.7998741907076180e-04 -5.0191677145829099e-03 0.0000000000000000e+00  -1.5542639342658683e-02 -6.8838370997312950e-02 0.0000000000000000e+00  -1.7289926909391164e-02 -7.5495353283764957e-02 0.0000000000000000e+00  -3.3863583817895747e-03 -3.3659273837132728e-02 0.0000000000000000e+00  -1.1652564710525526e-03 -2.0829641310223513e-02 0.0000000000000000e+00  -1.3256451084275358e-02 -6.0257849125592212e-02 0.0000000000000000e+00  -1.2016536780799343e-02 -5.5640760739310291e-02 0.0000000000000000e+00  -4.6252245108312330e-03 -3.9716743152746141e-02 0.0000000000000000e+00  -8.0224371293396876e-05 -6.1949417142366018e-05 0.0000000000000000e+00  5.7872448716928351e-05 -4.8740285335278176e-05 0.0000000000000000e+00  -7.1150705686927346e-03 -5.0310719075408149e-02 0.0000000000000000e+00  -4.6984914134588183e-03 -2.5277263031953403e-02 0.0000000000000000e+00  -2.6082338805780377e-03 -1.4204985738650497e-02 0.0000000000000000e+00  -5.5009878354448001e-04 -1.9181348524542317e-03 0.0000000000000000e+00  -7.5560662926688570e-04 -3.2521281874348354e-03 0.0000000000000000e+00  -5.9917967952497321e-03 -4.5954423783105922e-02 0.0000000000000000e+00  -3.1192621684940614e-03 -1.7058666494084187e-02 0.0000000000000000e+00  -5.5600137731334157e-03 -2.9010401963715654e-02 0.0000000000000000e+00  -1.5097687479562047e-03 -8.0199700362186301e-03 0.0000000000000000e+00  -2.2083833399620594e-02 -1.0790759399521628e-01 0.0000000000000000e+00  -2.5772819222748319e-02 -1.0706697184682096e-01 0.0000000000000000e+00  2.1833039582512114e-04 -8.1265437821594014e-03 0.0000000000000000e+00  -3.7280422541568359e-04 -9.0931414022429283e-04 0.0000000000000000e+00  -2.4843832646056573e-02 -1.2004459685737492e-01 0.0000000000000000e+00  -1.0667127969249334e-02 -4.9356625421994024e-02 0.0000000000000000e+00  -9.3616402182122253e-03 -4.4979593627260901e-02 0.0000000000000000e+00  -7.8603373012158412e-05 -1.4472813992251064e-02 0.0000000000000000e+00  4.5671374068516221e-04 -1.9389441254080821e-03 0.0000000000000000e+00  5.2647707052262574e-04 -3.3837418995606018e-03 0.0000000000000000e+00  -1.7263338987916303e-03 -2.5896343321403038e-02 0.0000000000000000e+00  -2.9823689735008910e-04 -1.7445382807752999e-02 0.0000000000000000e+00  -2.1217956209255242e-03 -2.9617578398433989e-02 0.0000000000000000e+00  -2.3059586431329541e-04 -4.7340294341476248e-04 0.0000000000000000e+00  -2.6073333830514446e-02 -1.2333060964964122e-01 0.0000000000000000e+00  -2.2125226869736479e-02 -9.2906053847732234e-02 0.0000000000000000e+00  -2.0321921657451815e-02 -8.6168214173904134e-02 0.0000000000000000e+00  4.2106983315050696e-04 -6.1537608780988960e-03 0.0000000000000000e+00  -1.8564124820857737e-02 -7.9485248206774384e-02 0.0000000000000000e+00  -2.3021879862426039e-02 -1.1250068790987237e-01 0.0000000000000000e+00  -1.6821609066038311e-02 -7.2822403627832641e-02 0.0000000000000000e+00  -1.5072925282124843e-02 -6.6191576285682285e-02 0.0000000000000000e+00  -1.3094592633587233e-03 -2.2859433077342065e-02 0.0000000000000000e+00  -1.4158845316949694e-02 -6.2773750266988587e-02 0.0000000000000000e+00  -3.6679044853099945e-03 -3.6046529246095214e-02 0.0000000000000000e+00  -1.1557116257182547e-02 -5.3034744305306088e-02 0.0000000000000000e+00  -4.9613073203499496e-03 -4.2201884735441689e-02 0.0000000000000000e+00  -2.9074412351049302e-02 -1.1850645152519894e-01 0.0000000000000000e+00  -2.0776286595996587e-02 -1.0422006623386246e-01 0.0000000000000000e+00  -1.9735313188276437e-03 -9.8667946094449163e-03 0.0000000000000000e+00  3.7360746720456754e-04 -1.0120089220576423e-03 0.0000000000000000e+00  2.0234966136277520e-04 -3.8396519314634468e-04 0.0000000000000000e+00  -9.1962760847355378e-03 -6.0108052466653378e-02 0.0000000000000000e+00  -8.7321717503647950e-03 -4.1764961128493566e-02 0.0000000000000000e+00  -1.0925413625950004e-02 -6.6736578157149548e-02 0.0000000000000000e+00  -1.6134460150409338e-02 -8.6725256059351746e-02 0.0000000000000000e+00  -1.2697107421193125e-02 -7.3371884993277806e-02 0.0000000000000000e+00  -1.4413645151625546e-02 -8.0035817914994409e-02 0.0000000000000000e+00  -7.0620807034318875e-03 -3.5870822359482045e-02 0.0000000000000000e+00  -7.6003184915237132e-03 -5.3572730317574674e-02 0.0000000000000000e+00  -4.3965451209778874e-03 -2.2683641898605052e-02 0.0000000000000000e+00  -6.4923153094455484e-03 -3.1944273321482822e-02 0.0000000000000000e+00  -1.8994984752733493e-02 -9.7888318694277734e-02 0.0000000000000000e+00  -3.8215816381352041e-03 -1.9502347476084866e-02 0.0000000000000000e+00  -1.8184421198857059e-02 -9.3302584759053703e-02 0.0000000000000000e+00  -1.3389364816758387e-03 -6.1737008215878054e-03 0.0000000000000000e+00  -1.0818663817417512e-03 -4.4248863770902586e-03 0.0000000000000000e+00  -2.8261093130831378e-02 -1.1520966482597902e-01 0.0000000000000000e+00  -2.7164301751929000e-02 -1.1080333845165846e-01 0.0000000000000000e+00  -1.6017149846446584e-02 -8.4408210989648638e-02 0.0000000000000000e+00  -1.4297962459672480e-02 -7.7730470629006190e-02 0.0000000000000000e+00  -1.0700714969478249e-02 -6.4373744210837719e-02 0.0000000000000000e+00  -1.7634405493929316e-02 -9.1092142097288803e-02 0.0000000000000000e+00  -1.2574920335060557e-02 -7.1069780550553102e-02 0.0000000000000000e+00  -8.9410242234042158e-03 -5.7779690520409967e-02 0.0000000000000000e+00  -7.4913847009566532e-03 -3.7833942351947085e-02 0.0000000000000000e+00  2.9732754538859199e-04 -9.8959700374694638e-03 0.0000000000000000e+00  -2.5200363793075362e-02 -1.0354310825187990e-01 0.0000000000000000e+00  -2.3931177110164542e-02 -9.9179197965261617e-02 0.0000000000000000e+00  6.61