<?xml version="1.0"?>
<VTKFile type="UnstructuredGrid"  version="0.1"  >
<UnstructuredGrid>
<Piece  NumberOfPoints="439" NumberOfCells="725">
<Points>
<DataArray  type="Float64"  NumberOfComponents="3"  format="ascii">0.5980773095169105 0.1619403466287572 0  0.6002490096263022 0.1818623074397236 0  0.2489897949 0.21 0  0.2489897949 0.19 0  0.5991631824289968 0.1719013251302315 0  0.2496355385699469 0.2060260530378829 0  0.249959460510575 0.2020130349814059 0  0.2499594605105767 0.1979869650186357 0  0.24963553856995 0.1939739469621422 0  0.2539711245004608 0.2099673340834568 0  0.2589558532295251 0.2099328830636482 0  0.2639401730374129 0.2098893271653188 0  0.2689224166852124 0.2098168054045685 0  0.2739026171924245 0.2097288016771031 0  0.2788842484049122 0.2096186757541358 0  0.2838619924220947 0.2094972114815342 0  0.2888362541638075 0.2093553331059347 0  0.2938107536211161 0.2091976271990898 0  0.2987829176646615 0.2090239280155458 0  0.3037567782669018 0.2088289176908203 0  0.3087303105719552 0.2086306868351018 0  0.3136988236568856 0.2084080675137279 0  0.3186723265236828 0.2081729303214122 0  0.3236388745667048 0.2079256380691053 0  0.3286065224395659 0.2076609629712862 0  0.333572279759664 0.2073862016434072 0  0.338536555114443 0.2070942029298082 0  0.3434981072924884 0.2067949995280823 0  0.3484591444036932 0.206480993264596 0  0.3534182474123739 0.2061566406366118 0  0.358375226414709 0.2058218836830439 0  0.3633337464938113 0.2054704007563384 0  0.3682922562601328 0.2051164734091494 0  0.3732478303498041 0.2047469282200749 0  0.3782014648104312 0.2043707162265624 0  0.3831544466742207 0.203982724679455 0  0.3881059580443273 0.2035860811060429 0  0.3930554308039124 0.2031809786514769 0  0.3980058969651015 0.2027624009133702 0  0.4029562448165164 0.2023425091463897 0  0.4079027245254803 0.2019100876645445 0  0.4128494979910475 0.2014679606308499 0  0.4177960060179589 0.2010235607206164 0  0.4227393841709019 0.2005677859767405 0  0.4276843897892186 0.2001067432200871 0  0.4326260186585427 0.1996386809507969 0  0.4375689204196825 0.1991633258277035 0  0.4425090128528913 0.1986832787513632 0  0.4474480875518466 0.19819654931105 0  0.4523870219709402 0.197705236693753 0  0.4573253043499163 0.1972086169537919 0  0.4622616622814104 0.1967071291050041 0  0.4671979347031209 0.1962018680864062 0  0.4721334646550215 0.1956921679347267 0  0.4770673867368762 0.1951786066096433 0  0.4820009385622224 0.1946621201831948 0  0.486933796147251 0.1941422185867437 0  0.4918653782571357 0.1936196562314189 0  0.4967965607525398 0.1930949829876743 0  0.5017271177177902 0.1925678974343788 0  0.506656672049092 0.1920389704782781 0  0.5115858357479918 0.1915086565500849 0  0.5165144399497624 0.1909767491409835 0  0.521442287001483 0.1904437133899933 0  0.5263698395158962 0.1899098174191959 0  0.5312969249101066 0.1893750098183037 0  0.5362235010480352 0.188839590645941 0  0.5411496724585253 0.18830373751751 0  0.5460754649993207 0.1877674518745586 0  0.5510010081673131 0.1872308611452232 0  0.5559264327511493 0.1866942447862534 0  0.5608515452373954 0.1861573796013918 0  0.565776552787534 0.1856204660349938 0  0.5707014046304342 0.1850835424235382 0  0.5756261168049722 0.184546606125137 0  0.5805507849922998 0.1840096871938427 0  0.5854753825644596 0.1834728072516129 0  0.5903999350816663 0.1829359505049976 0  0.5953244817866914 0.1823991222498635 0  0.593152789750419 0.162477199055133 0  0.5882282490500783 0.1630140646093279 0  0.583303711450693 0.1635509393705491 0  0.5783791618408196 0.1640878370537077 0  0.5734545997003946 0.1646247377182379 0  0.5685300522848313 0.1651616460840248 0  0.5636055145248846 0.1656985102369946 0  0.5586810309742886 0.1662353040381662 0  0.5537565542868866 0.1667720521947896 0  0.5488321514725256 0.1673085741615795 0  0.5439078421430784 0.1678449670596678 0  0.5389835428117682 0.1683809948012043 0  0.5340594366077298 0.1689164659074699 0  0.5291355429134746 0.1694518035656642 0  0.5242116651681156 0.1699862715020545 0  0.5192881723932282 0.1705195858696155 0  0.5143649856006268 0.1710526067555491 0  0.5094417306577705 0.1715840135593799 0  0.5045190946494693 0.1721135431020607 0  0.4995968890145077 0.1726425872280432 0  0.494674514778186 0.1731690225815917 0  0.4897530111303143 0.1736926234087273 0  0.4848320630128192 0.1742154966253387 0  0.4799107715685373 0.1747345490311248 0  0.4749906368192673 0.1752495605612218 0  0.4700711262708443 0.1757630794505613 0  0.4651515266353082 0.1762722054446873 0  0.4602330694508184 0.1767756607445222 0  0.4553149164934259 0.1772780326964859 0  0.4503956255825313 0.177773779059907 0  0.4454785750151438 0.1782622473568881 0  0.44056227527377 0.1787489939198085 0  0.4356455339653014 0.1792275023376136 0  0.4307284172437201 0.1797017501482628 0  0.4258118321721652 0.180169071732557 0  0.4208948898155688 0.1806277721094029 0  0.4159799192414389 0.1810818782226508 0  0.4110640057717079 0.1815271952702323 0  0.4061494944589898 0.1819653524672431 0  0.4012357313361654 0.1823950121472631 0  0.3963214970152053 0.1828156443565207 0  0.3914054855226464 0.1832293564338171 0  0.3864892694189568 0.1836330453409936 0  0.3815771541448501 0.184029666865321 0  0.3766614911647017 0.1844151166857738 0  0.3717495479432268 0.1847897254345368 0  0.366834402907689 0.1851561539227959 0  0.361920711389955 0.185509975460144 0  0.3570051306428648 0.1858558749740939 0  0.3520892889242442 0.1861893520342873 0  0.3471784838191599 0.1865143992402967 0  0.3422633918824754 0.1868263546260797 0  0.3373534080447927 0.1871248267096669 0  0.3324381978497857 0.1874123388055928 0  0.3275252532418051 0.1876820490079589 0  0.3226138750427933 0.1879476992521038 0  0.3177006494404409 0.1881936604597594 0  0.3127940331066673 0.1884270346912404 0  0.3078817572566853 0.1886467914655319 0  0.302971726851638 0.1888473946120119 0  0.2980603359291828 0.189036977278513 0  0.2931488904588211 0.1892078342738828 0  0.2882433771647294 0.1893661518979578 0  0.2833316873729482 0.1895067053080908 0  0.2784270875123374 0.1896303042143702 0  0.2735179048934467 0.1897330548249425 0  0.2686147812584317 0.1898183220377154 0  0.2637080835131201 0.1898900599156351 0  0.2588014289432721 0.189940429299592 0  0.2538957167010275 0.1899665956180911 0  0.5986202581759963 0.1669208325417189 0  0.5997061006875442 0.1768818169045869 0  0.258979236141879 0.2005189930529423 0  0.5425292026484666 0.1780748607174898 0  0.5675233325331331 0.1753210381654403 0  0.2774687927329058 0.2004721683791573 0  0.5133312640820088 0.1811457898709078 0  0.5281079144382779 0.179545000648196 0  0.2944850475615156 0.1984835623257445 0  0.5819587668621868 0.1733162498806441 0  0.3104022529546264 0.1985375635087834 0  0.3370141119797073 0.1980142005340699 0  0.4985534195403403 0.1827353010070372 0  0.3552241489435049 0.1960212490984852 0  0.483774232923148 0.1843070519517788 0  0.3706548008619242 0.1949371026153763 0  0.3897661346151636 0.1934195794190628 0  0.4685882478622413 0.1855320874863084 0  0.4538560828283275 0.1874979360417372 0  0.4042050799847301 0.1922948298748041 0  0.4193537930677875 0.1908366475037299 0  0.4384473868987359 0.1890119437063991 0  0.3202310681724174 0.1981127300663436 0  0.5577291038615354 0.1764097117820827 0  0.4278315255534255 0.1898926713849484 0  0.3467288407831232 0.1967349215204543 0  0.381280021908409 0.1942565561893616 0  0.2860679830552423 0.1994928377275169 0  0.590129613113807 0.171117093836163 0  0.268014513413462 0.2015312427963607 0  0.4614757362286173 0.1889903311046745 0  0.4910468725253848 0.1859017478370035 0  0.5058283970814749 0.1843205944922424 0  0.396974870419638 0.1905567692442431 0  0.4762627863016438 0.1874612569623399 0  0.5206076303058441 0.1827249528769833 0  0.4466849718799378 0.1904799229359328 0  0.535384934530022 0.1811205377139324 0  0.4117576930052956 0.1892642471254702 0  0.3624686888015433 0.1932594421104309 0  0.3032780983936693 0.1966112994580322 0  0.5742961070807107 0.1723441409149563 0  0.5495036772113234 0.1744208128346392 0  0.3283225102056457 0.2005531134032993 0  0.5481971064396391 0.1813281732440893 0  0.3299969167133896 0.1937345029304686 0  0.5369045724236851 0.1747814908356128 0  0.5221304808717606 0.1763865057480495 0  0.5073564549112974 0.1779833697360756 0  0.5771431582602857 0.1782074889509054 0  0.3013249443967295 0.202816205329319 0  0.4778096022152114 0.1811291115625321 0  0.4925827581351777 0.1795666020565759 0  0.3953030431979128 0.1968499084414241 0  0.3607119401432594 0.1995266658082007 0  0.4586724046641085 0.1831082989089191 0  0.4482652466202106 0.184157658142495 0  0.4101171496795531 0.195566994162163 0  0.2557703276775455 0.1960714884597109 0  0.2550281614843813 0.2034311623345274 0  0.4349218391854238 0.1931628195073516 0  0.374258730832953 0.1908607256586041 0  0.3403481070248634 0.1930179803777506 0  0.2812033241510617 0.1956292815645956 0  0.2911463501752496 0.195378507578361 0  0.4248255904919409 0.1943007548863262 0  0.3498556193785678 0.1924158071819197 0  0.3843429870635797 0.1898904455712238 0  0.3164372325533483 0.1944402524100454 0  0.5618756631435046 0.1797782217947716 0  0.56132467971879 0.1720716957544311 0  0.316406601006503 0.2021599075743761 0  0.2710181704839776 0.1957697527646113 0  0.5870269269604204 0.1779845965388583 0  0.4339935200674908 0.1848927472745648 0  0.4237363506069425 0.1862806900131099 0  0.3405073011344613 0.2017732958715658 0  0.280985150521601 0.2043622842704131 0  0.2915575844498736 0.2040663260502677 0  0.3750238525323574 0.1991401324328382 0  0.3502070571749877 0.2015411572134734 0  0.3848291034231411 0.1990139697131236 0  0.2647699949155781 0.1961042798662183 0  0.5939489245245126 0.1765433452950901 0  0.5310511787980075 0.174933477313977 0  0.5162772453855576 0.1765357374168628 0  0.3071643821976004 0.2030521843062434 0  0.5015036420100761 0.1781278691274028 0  0.5714056746393158 0.1793087769210491 0  0.4867306498574064 0.1797037547542534 0  0.4720015545001162 0.1812470617940012 0  0.3665688060210809 0.19960169023005
[...]
<PointData  Vectors="d"> 
<DataArray  type="Float64"  Name="d"  NumberOfComponents="3" format="ascii">-1.9226904830892989e-03 -2.8059653371242860e-02 0.0000000000000000e+00  2.4900962630224207e-04 -2.8137692560276387e-02 0.0000000000000000e+00  0.0000000000000000e+00 0.0000000000000000e+00 0.0000000000000000e+00  0.0000000000000000e+00 0.0000000000000000e+00 0.0000000000000000e+00  -8.3681757100327874e-04 -2.8098674869768504e-02 0.0000000000000000e+00  0.0000000000000000e+00 0.0000000000000000e+00 0.0000000000000000e+00  0.0000000000000000e+00 0.0000000000000000e+00 0.0000000000000000e+00  0.0000000000000000e+00 0.0000000000000000e+00 0.0000000000000000e+00  0.0000000000000000e+00 0.0000000000000000e+00 0.0000000000000000e+00  3.7523894831430504e-05 -3.2665916543238027e-05 0.0000000000000000e+00  7.8446918270980008e-05 -6.7116936351756126e-05 0.0000000000000000e+00  1.1896102052070192e-04 -1.1067283468120608e-04 0.0000000000000000e+00  1.5739896268240271e-04 -1.8319459543150970e-04 0.0000000000000000e+00  1.9379376426760606e-04 -2.7119832289696112e-04 0.0000000000000000e+00  2.3161927113686564e-04 -3.8132424586414490e-04 0.0000000000000000e+00  2.6555758270100966e-04 -5.0278851846572760e-04 0.0000000000000000e+00  2.9601361879091800e-04 -6.4466689406531040e-04 0.0000000000000000e+00  3.2670737046390595e-04 -8.0237280091021920e-04 0.0000000000000000e+00  3.5506570839070195e-04 -9.7607198445421206e-04 0.0000000000000000e+00  3.8512060500213078e-04 -1.1710823091797145e-03 0.0000000000000000e+00  4.1484720443701103e-04 -1.3693131648981167e-03 0.0000000000000000e+00  4.3955458374904133e-04 -1.5919324862720763e-03 0.0000000000000000e+00  4.6925174492794182e-04 -1.8270696785877951e-03 0.0000000000000000e+00  4.9199408233164990e-04 -2.0743619308946459e-03 0.0000000000000000e+00  5.1583624957420103e-04 -2.3390370287138433e-03 0.0000000000000000e+00  5.3778786404318907e-04 -2.6137983565928426e-03 0.0000000000000000e+00  5.5825751321451661e-04 -2.9057970701918119e-03 0.0000000000000000e+00  5.7600398563085293e-04 -3.2050004719177544e-03 0.0000000000000000e+00  5.9323539121718702e-04 -3.5190067354039620e-03 0.0000000000000000e+00  6.0853269427949387e-04 -3.8433593633882043e-03 0.0000000000000000e+00  6.2170599099629713e-04 -4.1781163169561592e-03 0.0000000000000000e+00  6.3642036448025572e-04 -4.5295992436615324e-03 0.0000000000000000e+00  6.5112442518334426e-04 -4.8835265908505543e-03 0.0000000000000000e+00  6.6289280922531663e-04 -5.2530717799251321e-03 0.0000000000000000e+00  6.7272156424352976e-04 -5.6292837734375281e-03 0.0000000000000000e+00  6.8189772240863562e-04 -6.0172753205449863e-03 0.0000000000000000e+00  6.8960338689356005e-04 -6.4139188939570440e-03 0.0000000000000000e+00  6.9527044084920534e-04 -6.8190213485230713e-03 0.0000000000000000e+00  7.0193089643090262e-04 -7.2375990866298621e-03 0.0000000000000000e+00  7.0847304221789221e-04 -7.6574908536103260e-03 0.0000000000000000e+00  7.1114704556956003e-04 -8.0899123354554597e-03 0.0000000000000000e+00  7.1411480551641221e-04 -8.5320393691500976e-03 0.0000000000000000e+00  7.1681712680703646e-04 -8.9764392793835746e-03 0.0000000000000000e+00  7.1638957413830732e-04 -9.4322140232594425e-03 0.0000000000000000e+00  7.1758948682677575e-04 -9.8932567799128769e-03 0.0000000000000000e+00  7.1541265051750750e-04 -1.0361319049203082e-02 0.0000000000000000e+00  7.1450870600526248e-04 -1.0836674172296534e-02 0.0000000000000000e+00  7.1079543355834869e-04 -1.1316721248636781e-02 0.0000000000000000e+00  7.0606442684979591e-04 -1.1803450688949934e-02 0.0000000000000000e+00  7.0119314029574119e-04 -1.2294763306247024e-02 0.0000000000000000e+00  6.9566981362984524e-04 -1.2791383046208152e-02 0.0000000000000000e+00  6.8822203949438091e-04 -1.3292870894995883e-02 0.0000000000000000e+00  6.8068875555434482e-04 -1.3798131913593786e-02 0.0000000000000000e+00  6.7241300182172741e-04 -1.4307832065273267e-02 0.0000000000000000e+00  6.6252937800947152e-04 -1.4821393390356683e-02 0.0000000000000000e+00  6.5227549770895544e-04 -1.5337879816805171e-02 0.0000000000000000e+00  6.4132737707493857e-04 -1.5857781413256344e-02 0.0000000000000000e+00  6.2910378132906492e-04 -1.6380343768581131e-02 0.0000000000000000e+00  6.1648057107877247e-04 -1.6905017012325652e-02 0.0000000000000000e+00  6.0323183070060886e-04 -1.7432102565621194e-02 0.0000000000000000e+00  5.8898045634281327e-04 -1.7961029521721943e-02 0.0000000000000000e+00  5.7433844960434949e-04 -1.8491343449915109e-02 0.0000000000000000e+00  5.5913694575876764e-04 -1.9023250859016533e-02 0.0000000000000000e+00  5.4317829184141817e-04 -1.9556286610006714e-02 0.0000000000000000e+00  5.2692510059603880e-04 -2.0090182580804063e-02 0.0000000000000000e+00  5.1020478916758620e-04 -2.0624990181696348e-02 0.0000000000000000e+00  4.9297522143659062e-04 -2.1160409354059027e-02 0.0000000000000000e+00  4.7534092628866164e-04 -2.1696262482489955e-02 0.0000000000000000e+00  4.5732776146767802e-04 -2.2232548125441409e-02 0.0000000000000000e+00  4.3906522382220002e-04 -2.2769138854776848e-02 0.0000000000000000e+00  4.2068410200356163e-04 -2.3305755213746567e-02 0.0000000000000000e+00  4.0199088260686782e-04 -2.3842620398608180e-02 0.0000000000000000e+00  3.8319272708598791e-04 -2.4379533965006160e-02 0.0000000000000000e+00  3.6423886432258553e-04 -2.4916457576461833e-02 0.0000000000000000e+00  3.4514533322632825e-04 -2.5453393874863027e-02 0.0000000000000000e+00  3.2600781491655016e-04 -2.5990312806157306e-02 0.0000000000000000e+00  3.0679968142548485e-04 -2.6527192748387090e-02 0.0000000000000000e+00  2.8754649298551571e-04 -2.7064049495002421e-02 0.0000000000000000e+00  2.6828749235084041e-04 -2.7600877750136553e-02 0.0000000000000000e+00  -1.9034045439641398e-03 -2.7522800944867021e-02 0.0000000000000000e+00  -1.8841395386797165e-03 -2.6985935390672074e-02 0.0000000000000000e+00  -1.8648714324263356e-03 -2.6449060629450887e-02 0.0000000000000000e+00  -1.8456153366531427e-03 -2.5912162946292328e-02 0.0000000000000000e+00  -1.8263717714567011e-03 -2.5375262281762113e-02 0.0000000000000000e+00  -1.8071134813996545e-03 -2.4838353915975265e-02 0.0000000000000000e+00  -1.7878455357334053e-03 -2.4301489763005387e-02 0.0000000000000000e+00  -1.7685233807001959e-03 -2.3764695961833806e-02 0.0000000000000000e+00  -1.7491943624713872e-03 -2.3227947805210446e-02 0.0000000000000000e+00  -1.7297914711779435e-03 -2.2691425838420487e-02 0.0000000000000000e+00  -1.7102950950258085e-03 -2.2155032940332137e-02 0.0000000000000000e+00  -1.6907887207368401e-03 -2.1619005198795751e-02 0.0000000000000000e+00  -1.6710892191663127e-03 -2.1083534092530082e-02 0.0000000000000000e+00  -1.6511772077883655e-03 -2.0548196434335780e-02 0.0000000000000000e+00  -1.6312492475472793e-03 -2.0013728497945433e-02 0.0000000000000000e+00  -1.6109363167962662e-03 -1.9480414130384524e-02 0.0000000000000000e+00  -1.5903174037949395e-03 -1.8947393244450907e-02 0.0000000000000000e+00  -1.5697666410520220e-03 -1.8415986440620126e-02 0.0000000000000000e+00  -1.5485969437484294e-03 -1.7886456897939322e-02 0.0000000000000000e+00  -1.5269968730727808e-03 -1.7357412771956796e-02 0.0000000000000000e+00  -1.5055654037860072e-03 -1.6830977418408249e-02 0.0000000000000000e+00  -1.4832633460388303e-03 -1.6307376591272651e-02 0.0000000000000000e+00  -1.4604057579150991e-03 -1.5784503374661273e-02 0.0000000000000000e+00  -1.4378914965672725e-03 -1.5265450968875246e-02 0.0000000000000000e+00  -1.4142205402292740e-03 -1.4750439438778237e-02 0.0000000000000000e+00  -1.3899253830239530e-03 -1.4236920549438705e-02 0.0000000000000000e+00  -1.3657193129472315e-03 -1.3727794555312742e-02 0.0000000000000000e+00  -1.3403707918165663e-03 -1.3224339255477785e-02 0.0000000000000000e+00  -1.3147180435845488e-03 -1.2721967303514083e-02 0.0000000000000000e+00  -1.2902032488495700e-03 -1.2226220940092961e-02 0.0000000000000000e+00  -1.2634481106278685e-03 -1.1737752643111918e-02 0.0000000000000000e+00  -1.2359421463765303e-03 -1.1251006080191459e-02 0.0000000000000000e+00  -1.2088777492281684e-03 -1.0772497662386402e-02 0.0000000000000000e+00  -1.1821887651930789e-03 -1.0298249851737242e-02 0.0000000000000000e+00  -1.1549681311214921e-03 -9.8309282674429593e-03 0.0000000000000000e+00  -1.1281047820793321e-03 -9.3722278905971693e-03 0.0000000000000000e+00  -1.0992696505667556e-03 -8.9181217773491930e-03 0.0000000000000000e+00  -1.0713774146515395e-03 -8.4728047297676669e-03 0.0000000000000000e+00  -1.0420830217096368e-03 -8.0346475327568445e-03 0.0000000000000000e+00  -1.0120404388823524e-03 -7.6049878527368973e-03 0.0000000000000000e+00  -9.8246905418481064e-04 -7.1843556434793340e-03 0.0000000000000000e+00  -9.5467484110833920e-04 -6.7706435661828834e-03 0.0000000000000000e+00  -9.2708523915133580e-04 -6.3669546590064616e-03 0.0000000000000000e+00  -8.9539480763231355e-04 -5.9703331346790305e-03 0.0000000000000000e+00  -8.6725208212416120e-04 -5.5848833142261916e-03 0.0000000000000000e+00  -8.3538959795049854e-04 -5.2102745654631841e-03 0.0000000000000000e+00  -8.0672892781952536e-04 -4.8438460772041430e-03 0.0000000000000000e+00  -7.7661473990634779e-04 -4.4900245398560457e-03 0.0000000000000000e+00  -7.4838978134601645e-04 -4.1441250259061525e-03 0.0000000000000000e+00  -7.2042579434481921e-04 -3.8106479657126911e-03 0.0000000000000000e+00  -6.8742519377102925e-04 -3.4856007597033759e-03 0.0000000000000000e+00  -6.5871142481667639e-04 -3.1736453739203254e-03 0.0000000000000000e+00  -6.2488955686072485e-04 -2.8751732903331130e-03 0.0000000000000000e+00  -5.9629404622945443e-04 -2.5876611944071711e-03 0.0000000000000000e+00  -5.6543294856999603e-04 -2.3179509920410509e-03 0.0000000000000000e+00  -5.3300544192385279e-04 -2.0523007478961464e-03 0.0000000000000000e+00  -5.0242533861824502e-04 -1.8063395402405894e-03 0.0000000000000000e+00  -4.6523596673397021e-04 -1.5729653087595914e-03 0.0000000000000000e+00  -4.3370611107277572e-04 -1.3532085344681003e-03 0.0000000000000000e+00  -3.9993081048167396e-04 -1.1526053879880630e-03 0.0000000000000000e+00  -3.6751602729852907e-04 -9.6302272148697423e-04 0.0000000000000000e+00  -3.3515579202185978e-04 -7.9216572611724690e-04 0.0000000000000000e+00  -2.9686338045793856e-04 -6.3384810204222472e-04 0.0000000000000000e+00  -2.6474746658129825e-04 -4.9329469190918850e-04 0.0000000000000000e+00  -2.2554162153426319e-04 -3.6969578562981166e-04 0.0000000000000000e+00  -1.9091853477757047e-04 -2.6694517505754429e-04 0.0000000000000000e+00  -1.5023646415414447e-04 -1.8167796228464971e-04 0.0000000000000000e+00  -1.1312850382753308e-04 -1.0994008436487698e-04 0.0000000000000000e+00  -7.5977368037188813e-05 -5.9570700408007018e-05 0.0000000000000000e+00  -3.7883904630407540e-05 -3.3404381908914094e-05 0.0000000000000000e+00  -1.3797418240037264e-03 -2.8079167458259412e-02 0.0000000000000000e+00  -2.9389931245584638e-04 -2.8118183095386013e-02 0.0000000000000000e+00  5.8096102297369280e-06 -3.3396289898018870e-05 0.0000000000000000e+00  -6.1703173684105538e-04 -2.1925139282479161e-02 0.0000000000000000e+00  -7.1645694368301853e-04 -2.4649420415458374e-02 0.0000000000000000e+00  1.7400021103397600e-05 -3.2202356303531412e-04 0.0000000000000000e+00  -5.1831929488814162e-04 -1.8756552778184128e-02 0.0000000000000000e+00  -5.7308605546028978e-04 -2.0357342000900891e-02 0.0000000000000000e+00  -2.5847644249055896e-05 -8.0762851479410233e-04 0.0000000000000000e+00  -8.1931627630583092e-04 -2.6226730219690814e-02 0.0000000000000000e+00  -1.0586702299095103e-05 -1.4328950721143785e-03 0.0000000000000000e+00  1.3936437852302704e-05 -2.8152607093268629e-03 0.0000000000000000e+00  -4.6474671970565687e-04 -1.7167041642053005e-02 0.0000000000000000e+00  -5.7468627399453021e-05 -3.9787509015756124e-03 0.0000000000000000e+00  -4.1251622004459233e-04 -1.5595290697306049e-02 0.0000000000000000e+00  -8.2570528630901860e-05 -5.0771350799926123e-03 0.0000000000000000e+00  -1.2212289508589980e-04 -6.5804205810200186e-03 0.0000000000000000e+00  -3.9750718703208623e-04 -1.4009584939361018e-02 0.0000000000000000e+00  -3.0164885586917524e-04 -1.2502063958172582e-02 0.0000000000000000e+00  -1.4841141710296142e-04 -7.8028274761203411e-03 0.0000000000000000e+00  -1.9729867616945172e-04 -9.1633524963758064e-03 0.0000000000000000e+00  -2.5459096571533904e-04 -1.0973818598278083e-02 0.0000000000000000e+00  -1.6206853253021251e-05 -1.8961541482963068e-03 0.0000000000000000e+00  -6.7625024654963627e-04 -2.3581404003274981e-02 0.0000000000000000e+00  -2.3518913528783501e-04 -9.9562334358757349e-03 0.0000000000000000e+00  -3.7153843424232827e-05 -3.4161736589831716e-03 0.0000000000000000e+00  -9.2612657481819883e-05 -5.8945389900903729e-03 0.0000000000000000e+00  -3.5463696755199143e-07 -5.4870684310129368e-04 0.0000000000000000e+00  -9.9276806431259019e-04 -2.7127822098711361e-02 0.0000000000000000e+00  2.5197267599298809e-05 -1.4388285036830511e-04 0.0000000000000000e+00  -9.7704014010563365e-05 -1.3260032224125803e-02 0.0000000000000000e+00  -1.8940195096052876e-04 -1.6348615491805610e-02 0.0000000000000000e+00  -2.3929451172348455e-04 -1.7929768836569417e-02 0.0000000000000000e+00  -3.2909564903947197e-04 -7.1928674269533897e-03 0.0000000000000000e+00  -1.4207105784588538e-04 -1.4789106366465257e-02 0.0000000000000000e+00  -2.9147840420138375e-04 -1.9525410451835121e-02 0.0000000000000000e+00  -5.7051245827801772e-05 -1.1770440392867225e-02 0.0000000000000000e+00  -3.4559129686274133e-04 -2.1129825614887379e-02 0.0000000000000000e+00  -3.7769018023606232e-04 -8.4853895457274297e-03 0.0000000000000000e+00  -2.2863732779189707e-04 -4.4901945607610048e-03 0.0000000000000000e+00  -9.3559268226870067e-05 -1.1383372131547017e-03 0.0000000000000000e+00  -9.8486439111228103e-04 -2.5405495756193958e-02 0.0000000000000000e+00  -9.5617870773267207e-04 -2.2707665639127468e-02 0.0000000000000000e+00  1.2973699096164380e-04 -2.3184081229413143e-03 0.0000000000000000e+00  -2.2079561010701512e-04 -2.2512148325386984e-02 0.0000000000000000e+00  -2.3781037060920067e-04 -2.4251755000804392e-03 0.0000000000000000e+00  -1.0165128001263166e-03 -2.1343690828798244e-02 0.0000000000000000e+00  -9.5918723520463129e-04 -1.9738675916356287e-02 0.0000000000000000e+00  -9.0179607882472784e-04 -1.8141811928334209e-02 0.0000000000000000e+00  -3.2837260842363591e-04 -2.5667329384683284e-02 0.0000000000000000e+00  1.4384613177469068e-04 -1.0586130062747350e-03 0.0000000000000000e+00  -7.8581454119967093e-04 -1.4996070101871910e-02 0.0000000000000000e+00  -8.4407573808944775e-04 -1.6558579607830408e-02 0.0000000000000000e+00  1.8963652614977617e-04 -7.0249098941725244e-03 0.0000000000000000e+00  2.0517341084764874e-04 -4.3481525273943583e-03 0.0000000000000000e+00  -7.1047618160613966e-04 -1.3016882755480221e-02 0.0000000000000000e+00  -6.6733590246988725e-04 -1.1967523521905703e-02 0.0000000000000000e+00  1.7232589093115196e-04 -8.3078241734360590e-03 0.0000000000000000e+00  -1.5972302651642035e-05 -1.4348566018601618e-05 0.0000000000000000e+00  1.3425453441403890e-05 -1.1480664583999198e-05 0.0000000000000000e+00  1.1869153895495236e-04 -1.0610938256803752e-02 0.0000000000000000e+00  -3.7747077545701249e-04 -5.3655165772511946e-03 0.0000000000000000e+00  -2.7772956156707946e-04 -3.0288118162383722e-03 0.0000000000000000e+00  -9.6843967921699978e-05 -4.1751062945458308e-04 0.0000000000000000e+00  -1.2228856873965893e-04 -7.0312528656716982e-04 0.0000000000000000e+00  1.5505690995167915e-04 -9.6524529196281694e-03 0.0000000000000000e+00  -3.0655635434518637e-04 -3.6309850122681247e-03 0.0000000000000000e+00  -4.2582860868969061e-04 -6.1563466230120786e-03 0.0000000000000000e+00  -1.9513598500769258e-04 -1.7192061533246306e-03 0.0000000000000000e+00  -2.7933796183634625e-04 -2.4003427465127524e-02 0.0000000000000000e+00  -1.1167079831870543e-03 -2.4004496606706650e-02 0.0000000000000000e+00  1.6709742319019291e-04 -1.7080481680930809e-03 0.0000000000000000e+00  -7.0542936784601161e-05 -1.9989156797248185e-04 0.0000000000000000e+00  -2.7451067994008357e-04 -2.6738191564224027e-02 0.0000000000000000e+00  -6.7443657678011753e-04 -1.0572398680686499e-02 0.0000000000000000e+00  -5.9329980085604981e-04 -9.5950080807962832e-03 0.0000000000000000e+00  2.5135005110893670e-04 -3.0207541575264837e-03 0.0000000000000000e+00  1.1665784550764197e-04 -4.1195751085250950e-04 0.0000000000000000e+00  1.4988113600121353e-04 -7.1462565682779212e-04 0.0000000000000000e+00  2.5245992186418250e-04 -5.3947216120172146e-03 0.0000000000000000e+00  2.8540828510101166e-04 -3.6341841051570727e-03 0.0000000000000000e+00  3.0081459391131092e-04 -6.1613716055123674e-03 0.0000000000000000e+00  -4.4491629927225811e-05 -1.0469443241907636e-04 0.0000000000000000e+00  -3.7583984177680418e-04 -2.7498197063828143e-02 0.0000000000000000e+00  -1.0460822476070900e-03 -2.0711032591110175e-02 0.0000000000000000e+00  -9.8859854321507149e-04 -1.9108772488222573e-02 0.0000000000000000e+00  1.7205663733472506e-04 -1.2946190810117445e-03 0.0000000000000000e+00  -9.3078480185028857e-04 -1.7516640777683577e-02 0.0000000000000000e+00  -2.5462893411939166e-04 -2.5038026466227055e-02 0.0000000000000000e+00  -8.7235983766770588e-04 -1.5940755150829718e-02 0.0000000000000000e+00  -8.1364302951011176e-04 -1.4393185096988248e-02 0.0000000000000000e+00  2.3862836832716652e-04 -4.7657646338033644e-03 0.0000000000000000e+00  -7.8219689869586239e-04 -1.3604487329764247e-02 0.0000000000000000e+00  2.2294100256282709e-04 -7.5214024236439159e-03 0.0000000000000000e+00  -6.9345713547631980e-04 -1.1391893854334771e-02 0.0000000000000000e+00  2.0631119991500587e-04 -8.8327493470983474e-03 0.0000000000000000e+00  -1.2519975729514169e-03 -2.6616507120434285e-02 0.0000000000000000e+00  -1.7815290747935932e-04 -2.3137767785349483e-02 0.0000000000000000e+00  -2.5124581531780284e-04 -2.1141637533720788e-03 0.0000000000000000e+00  8.9182659498018588e-05 -2.1668605407453839e-04 0.0000000000000000e+00  4.7186765588798342e-05 -8.3729729188017189e-05 0.0000000000000000e+00  1.5709693884267752e-04 -1.2784503796976762e-02 0.0000000000000000e+00  -5.9649301593369254e-04 -8.8986497176385179e-03 0.0000000000000000e+00  1.2020549285984403e-04 -1.4301876948984660e-02 0.0000000000000000e+00  -2.6624209629423742e-05 -1.9017451986017054e-02 0.0000000000000000e+00  6.8426215674087989e-05 -1.5850730987484241e-02 0.0000000000000000e+00  2.2628215676886301e-05 -1.7425763167476530e-02 0.0000000000000000e+00  -4.8366782890890334e-04 -7.6144609471740909e-03 0.0000000000000000e+00  1.7281769496719110e-04 -1.1319482102892657e-02 0.0000000000000000e+00  -4.0000932560650546e-04 -4.8249302179270669e-03 0.0000000000000000e+00  -5.1183608633187134e-04 -6.7887565697796930e-03 0.0000000000000000e+00  -1.0320787118372464e-04 -2.1657221196010421e-02 0.0000000000000000e+00  -3.8000300277159211e-04 -4.1539444098175728e-03 0.0000000000000000e+00  -1.5359579869820092e-04 -2.0596953465628582e-02 0.0000000000000000e+00  -1.9575595831220806e-04 -1.3289170597710557e-03 0.0000000000000000e+00  -1.7259669905607403e-04 -9.5594389231709251e-04 0.0000000000000000e+00  -1.2414254789340782e-03 -2.5873751209523121e-02 0.0000000000000000e+00  -1.2272158946613364e-03 -2.4877134634649883e-02 0.0000000000000000e+00  -1.1636904736224931e-04 -1.8490462520801276e-02 0.0000000000000000e+00  -6.7047881868170404e-05 -1.6903423994678802e-02 0.0000000000000000e+00  4.8939364434496015e-05 -1.3777312783596056e-02 0.0000000000000000e+00  -1.4232826844316063e-04 -2.0074592950011388e-02 0.0000000000000000e+00  -2.0851669574047524e-05 -1.5335392610138403e-02 0.0000000000000000e+00  9.5025974449191252e-05 -1.2274731624859585e-02 0.0000000000000000e+00  -4.9670557464856426e-04 -8.0346977916843781e-03 0.0000000000000000e+00  2.2084183119473519e-04 -2.0720035477315504e-03 0.0000000000000000e+00  -1.1727221795799474e-03 -2.3211708661879382e-02 0.0000000000000000e+00  -1.1206319468959900e-03 -2.2192858547712038e-02 0.0000000000000000e+00  2.2954117534823413e-04 -2.5876074511402732e-03 0.0000000000000000e+00 