<?xml version="1.0"?>
<VTKFile type="UnstructuredGrid"  version="0.1"  >
<UnstructuredGrid>
<Piece  NumberOfPoints="439" NumberOfCells="725">
<Points>
<DataArray  type="Float64"  NumberOfComponents="3"  format="ascii">0.6004622975575968 0.1929335492233509 0  0.599856071764354 0.2130476617545552 0  0.2489897949 0.21 0  0.2489897949 0.19 0  0.6001600476764702 0.2029898520006178 0  0.2496355385699469 0.2060260530378829 0  0.249959460510575 0.2020130349814059 0  0.2499594605105767 0.1979869650186357 0  0.24963553856995 0.1939739469621422 0  0.2539669171660852 0.2099622681135139 0  0.2589378287214343 0.2099239314931124 0  0.2639042076362781 0.2098789729422847 0  0.268863337652159 0.2098223522105791 0  0.273815286384057 0.2097638847731587 0  0.2787617003422713 0.2097022907504733 0  0.2837034200682283 0.209644144863346 0  0.2886405344112327 0.2095905004269553 0  0.2935729881116589 0.2095434164108657 0  0.2985027336374575 0.2095054083942282 0  0.303428172711698 0.2094820506765103 0  0.3083517278003104 0.2094624333169186 0  0.313276664514442 0.2094615508698249 0  0.3181964195881621 0.2094724145017818 0  0.3231216063797165 0.209494189543104 0  0.3280465466876156 0.2095298971234854 0  0.3329744480555653 0.2095731808532148 0  0.3379054082483871 0.2096278821730932 0  0.3428398550991751 0.2096863141904173 0  0.347777973827099 0.209751208866578 0  0.3527195710568105 0.2098192283345535 0  0.3576641707811006 0.2098874088993876 0  0.3626113669275834 0.2099542832836895 0  0.3675605095423337 0.2100186643592954 0  0.3725106503319336 0.2100765048030434 0  0.3774609695805946 0.2101287622694607 0  0.3824119271219137 0.2101727491411399 0  0.3873630892269109 0.2102093147594062 0  0.392313694547223 0.2102384736972193 0  0.397267689086009 0.2102572861591797 0  0.402220776218446 0.2102753456433331 0  0.407173879143064 0.2102840430404162 0  0.4121275310447413 0.2102882179653964 0  0.4170799807167812 0.210290905706987 0  0.4220312910106419 0.2102888566651547 0  0.4269806285822105 0.2102838718253406 0  0.4319276147136121 0.2102794795136228 0  0.4368709836521563 0.2102734251027808 0  0.4418127250933157 0.2102703096233814 0  0.4467526128138162 0.2102702441021805 0  0.4516899949022616 0.2102744036255777 0  0.4566251601872228 0.210283708135158 0  0.4615607222527694 0.2103017327671375 0  0.4664951354091265 0.2103273122396377 0  0.4714299476533147 0.2103609466091016 0  0.4763654790959786 0.2104050729524772 0  0.4813020438176275 0.2104561166359975 0  0.4862402096888317 0.2105139357546653 0  0.4911770771123727 0.2105776159160663 0  0.496114058701254 0.2106450375479587 0  0.5010506986401285 0.2107153647908538 0  0.5059835739659611 0.210786237792481 0  0.510913563681537 0.2108583114444947 0  0.5158397917391762 0.210931852431446 0  0.5207625644725373 0.2110055234021215 0  0.5256812418011396 0.2110822814129843 0  0.5305965764876915 0.2111632950125112 0  0.5355107974181367 0.2112503202018678 0  0.5404280542481569 0.2113418595138063 0  0.545349760093237 0.2114455778491122 0  0.55027326890061 0.2115629465980352 0  0.5552000487502757 0.211679851063965 0  0.5601407521402673 0.2118147800595981 0  0.5650837640042702 0.2119554326705752 0  0.5700387175479418 0.2121014995338476 0  0.5750004962747077 0.2122584777397639 0  0.5799664692594827 0.2124131383982758 0  0.584938436180616 0.2125734140265655 0  0.589911497630759 0.2127339734446947 0  0.5948840881818866 0.2128917295244846 0  0.5954866168396558 0.1927850830160677 0  0.5905047149688993 0.1926363947793841 0  0.5855192937754146 0.1924859071056611 0  0.5805323433727173 0.1923420348172212 0  0.5755450210849777 0.1922051253283194 0  0.570562201458327 0.1920715350325807 0  0.5655851711210268 0.191949036098106 0  0.5606102166346577 0.19183608037011 0  0.5556486260566373 0.1917253319693858 0  0.5506931087628765 0.1916254237429756 0  0.5457464918952929 0.1915249818857291 0  0.5408101238677708 0.1914339669561843 0  0.5358749899164235 0.1913474688609977 0  0.5309439935115209 0.1912538987933542 0  0.5260189907582149 0.1911688037516178 0  0.5210904993595399 0.1910836183864588 0  0.5161623630456221 0.1909934552394258 0  0.511231145447065 0.1909095827408456 0  0.5062937107061575 0.1908254450978924 0  0.5013537047974806 0.1907410491628508 0  0.4964061150951896 0.1906642242647718 0  0.4914536776610371 0.1905913629789028 0  0.486498872923146 0.1905233055707012 0  0.4815388153620078 0.1904649912138764 0  0.4765774585756666 0.1904141912026492 0  0.4716164116547462 0.1903706109429433 0  0.4666534241364361 0.1903362888974493 0  0.4616924761896796 0.1903104383393432 0  0.4567334055367283 0.1902894577834947 0  0.451776486420306 0.1902758157299652 0  0.4468194670074054 0.1902675651980065 0  0.44186527689408 0.1902611498787472 0  0.436911878555042 0.1902594580009479 0  0.4319604117768728 0.1902587301977732 0  0.427009511876674 0.1902600890598944 0  0.4220606667252322 0.1902621130080778 0  0.4171137661870393 0.1902643422711273 0  0.4121700775184821 0.1902649274413355 0  0.4072305988057975 0.1902633451733702 0  0.4022955364188737 0.1902577846339169 0  0.3973644618995614 0.1902458553823844 0  0.3924353602364155 0.1902274720493143 0  0.3875084304655553 0.1901991693355146 0  0.3825839088342632 0.1901635077519881 0  0.3776561848834187 0.1901171429655617 0  0.3727267339704016 0.1900626868919635 0  0.3677919753048887 0.1900024681221457 0  0.3628530251506876 0.1899383942421504 0  0.3579094474922136 0.1898723033380951 0  0.3529623675135962 0.1898062516393113 0  0.3480115829777333 0.1897409046329435 0  0.3430589498047251 0.1896799968132168 0  0.338100972794674 0.1896232682515468 0  0.3331434895613674 0.1895719638881836 0  0.3281812762256127 0.1895323509065205 0  0.3232165779052096 0.1894957415263029 0  0.3182507629214718 0.1894748587334452 0  0.3132797103100059 0.1894654059118732 0  0.3083135569241371 0.1894678377730528 0  0.3033469669187483 0.189485315701907 0  0.2983838169387993 0.1895113758072502 0  0.2934232029997719 0.1895496777656946 0  0.288462785344688 0.1895959684462292 0  0.2835088442502049 0.1896483050443997 0  0.2785587273550352 0.1897083358904365 0  0.273615259195256 0.1897675883550295 0  0.2686793383004912 0.1898267516702906 0  0.2637478037514847 0.1898823809957649 0  0.2588219482353145 0.18992937062133 0  0.253902866855069 0.18996384356896 0  0.6003115430058044 0.1979620940268114 0  0.6000094918450324 0.2080186996273069 0  0.2589783438668056 0.2004962174388782 0  0.5430886122500138 0.2013953432610543 0  0.5681982481311436 0.2019646727920146 0  0.2774669771465429 0.2005140699758628 0  0.513911023057896 0.200817436586783 0  0.5286816999242075 0.2010459766466132 0  0.2945205143801165 0.1988187530964908 0  0.582836859640701 0.2019835503068627 0  0.3104300081111657 0.1994190204530664 0  0.337019060935397 0.2004352572774543 0  0.499107172716784 0.2005955247029819 0  0.3553136027529193 0.1998454486766685 0  0.4842693029713909 0.2003972437406155 0  0.3707718416310483 0.2000690908134172 0  0.3899027722367522 0.2002286858064992 0  0.4690522472060087 0.1998931041624725 0  0.4542065914792151 0.2002832743927012 0  0.4043581371808992 0.2003756277277289 0  0.419567874799997 0.200281375280235 0  0.4387402705409845 0.2002546697437155 0  0.3202686402322591 0.1994744257988588 0  0.5583328703005317 0.2017182430244096 0  0.4280941940560007 0.2001240892717569 0  0.3467929809093094 0.1998789890843158 0  0.3813961730606399 0.2003191736172901 0  0.2860804903856535 0.1996561476751864 0  0.5912796190842162 0.2009470509824521 0  0.2680070246944703 0.2015170175083129 0  0.4616131596769046 0.2025570153233925 0  0.4912923292857905 0.2028320934618668 0  0.5061109286343717 0.20304445474629 0  0.3973224036691853 0.1980094365807023 0  0.4764528049216823 0.2026598852341694 0  0.5208937121981101 0.2032668980146673 0  0.4467773900479159 0.202521864488346 0  0.5356564060409302 0.2035035167953452 0  0.4121498190619475 0.1980297741861795 0  0.3627582155900527 0.1976961854359176 0  0.3033793451884683 0.1972204676729946 0  0.5753364641118188 0.1999501949518105 0  0.5504483537597709 0.1986851648384395 0  0.3281990235435212 0.2023909119314728 0  0.5482649596103054 0.2053357529371088 0  0.3302871063355064 0.1956982076723322 0  0.5379543350062329 0.1974469972641808 0  0.523178941163574 0.1971993015320503 0  0.508392668655382 0.1969653124117338 0  0.5773753309497973 0.206162476948944 0  0.301212884580713 0.2033559230544222 0  0.4787107105607065 0.1965614413245869 0  0.4935671569818144 0.1967429786549128 0  0.3951024412422643 0.2041294201333052 0  0.3604956317288435 0.2037969617619858 0  0.4594604416996268 0.1964270529829002 0  0.4489931249173151 0.1963989886217452 0  0.4099432403167372 0.2041606300377887 0  0.2557759404123106 0.1960557999285694 0  0.2550249742635367 0.2034169752316272 0  0.4348302328558967 0.2040471634914764 0  0.3747070291275292 0.1963227229426308 0  0.340692631080463 0.1956956821157642 0  0.2812732452599843 0.195719151229872 0  0.2912513162170511 0.1956419740083983 0  0.4246875858533689 0.2042352665688647 0  0.3502370618492203 0.1958189147234086 0  0.3848217715919382 0.1962396160508174 0  0.3166587129788349 0.1956159234371461 0  0.5619972908635892 0.2056119138888692 0  0.5624724268606598 0.197917593888899 0  0.3162536224093108 0.2033222647764028 0  0.2710584493451387 0.1957725281802589 0  0.5872424345981684 0.2073345986120368 0  0.4347124360698302 0.1957311517763428 0  0.4243597011310054 0.1961477488141921 0  0.3402343625244616 0.2044408632552485 0  0.2809230214965679 0.204449955879864 0  0.2914573664942474 0.2043380349140289 0  0.3747566264134144 0.2046384206950572 0  0.3498919479506123 0.2049496538120245 0  0.3845078336191913 0.2053684859986536 0  0.2647914266478995 0.1960872124890422 0  0.5943302975754347 0.206876381117818 0  0.5321598232491339 0.1968697716103749 0  0.5173845602023444 0.1966296853498537 0  0.3070191356820602 0.2038044803497841 0  0.5025833809050165 0.1963967672904552 0  0.5715202344488466 0.2064557841696249 0  0.4877423801215001 0.1961855119600955 0  0.4729230616885547 0.1960239978424443 0  0.3663153135387126 0.2043682914315412 0  0.465253
[...]
<PointData  Vectors="d"> 
<DataArray  type="Float64"  Name="d"  NumberOfComponents="3" format="ascii">4.6229755759694564e-04 2.9335492233508484e-03 0.0000000000000000e+00  -1.4392823564602654e-04 3.0476617545551654e-03 0.0000000000000000e+00  0.0000000000000000e+00 0.0000000000000000e+00 0.0000000000000000e+00  0.0000000000000000e+00 0.0000000000000000e+00 0.0000000000000000e+00  1.6004767647020247e-04 2.9898520006176798e-03 0.0000000000000000e+00  0.0000000000000000e+00 0.0000000000000000e+00 0.0000000000000000e+00  0.0000000000000000e+00 0.0000000000000000e+00 0.0000000000000000e+00  0.0000000000000000e+00 0.0000000000000000e+00 0.0000000000000000e+00  0.0000000000000000e+00 0.0000000000000000e+00 0.0000000000000000e+00  3.3316560456020241e-05 -3.7731886486036123e-05 0.0000000000000000e+00  6.0422410180098456e-05 -7.6068506887649453e-05 0.0000000000000000e+00  8.2995619386036967e-05 -1.2102705771525840e-04 0.0000000000000000e+00  9.8319929629106596e-05 -1.7764778942091559e-04 0.0000000000000000e+00  1.0646295589998057e-04 -2.3611522684139415e-04 0.0000000000000000e+00  1.0907120849588961e-04 -2.9770924952666285e-04 0.0000000000000000e+00  1.0698522883465375e-04 -3.5585513665386506e-04 0.0000000000000000e+00  1.0029386621611705e-04 -4.0949957304479653e-04 0.0000000000000000e+00  8.8941861006700996e-05 -4.5658358913425596e-04 0.0000000000000000e+00  7.4881681186658787e-05 -4.9459160577183911e-04 0.0000000000000000e+00  5.6515049798310722e-05 -5.1794932348981173e-04 0.0000000000000000e+00  3.6264432792435472e-05 -5.3756668308127629e-04 0.0000000000000000e+00  1.7395441305474757e-05 -5.3844913017518799e-04 0.0000000000000000e+00  -6.6551905927965176e-06 -5.2758549821819468e-04 0.0000000000000000e+00  -2.5274104656688510e-05 -5.0581045689596310e-04 0.0000000000000000e+00  -4.4139502376002932e-05 -4.7010287651464485e-04 0.0000000000000000e+00  -6.0043840055536961e-05 -4.2681914678519760e-04 0.0000000000000000e+00  -7.2889352841492826e-05 -3.7211782690671589e-04 0.0000000000000000e+00  -8.2248207682502071e-05 -3.1368580958258827e-04 0.0000000000000000e+00  -8.7935185376980982e-05 -2.4879113342196146e-04 0.0000000000000000e+00  -9.0143661283986317e-05 -1.8077166544653190e-04 0.0000000000000000e+00  -8.9349642611970012e-05 -1.1259110061242594e-04 0.0000000000000000e+00  -8.5959201747534946e-05 -4.5716716310452726e-05 0.0000000000000000e+00  -8.0622292615942437e-05 1.8664359295460022e-05 0.0000000000000000e+00  -7.4287208645085925e-05 7.6504803043463078e-05 0.0000000000000000e+00  -6.7773665593092621e-05 1.2876226946064839e-04 0.0000000000000000e+00  -6.0621829898469079e-05 1.7274914113985827e-04 0.0000000000000000e+00  -5.3265430522954457e-05 2.0931475940627386e-04 0.0000000000000000e+00  -4.6465815840132250e-05 2.3847369721921688e-04 0.0000000000000000e+00  -3.6276982661538155e-05 2.5728615917963168e-04 0.0000000000000000e+00  -2.6995555852424881e-05 2.7534564333300642e-04 0.0000000000000000e+00  -1.7698336846868109e-05 2.8404304041627064e-04 0.0000000000000000e+00  -7.8521407896979715e-06 2.8821796539635342e-04 0.0000000000000000e+00  7.9182562937122457e-07 2.9090570698698620e-04 0.0000000000000000e+00  8.2964138783596710e-06 2.8885666515471347e-04 0.0000000000000000e+00  1.3828279818592571e-05 2.8387182534071119e-04 0.0000000000000000e+00  1.7008705587112270e-05 2.7947951362278115e-04 0.0000000000000000e+00  1.6571938478954465e-05 2.7342510278082871e-04 0.0000000000000000e+00  1.4507673982839823e-05 2.7030962338148862e-04 0.0000000000000000e+00  1.0589688819323691e-05 2.7024410218068389e-04 0.0000000000000000e+00  4.1660716169996498e-06 2.7440362557767538e-04 0.0000000000000000e+00  -4.4743490636412169e-06 2.8370813515781758e-04 0.0000000000000000e+00  -1.2717989146645373e-05 3.0173276713747142e-04 0.0000000000000000e+00  -2.2110538440191620e-05 3.2731223963767598e-04 0.0000000000000000e+00  -3.1103999885144764e-05 3.6094660910163746e-04 0.0000000000000000e+00  -3.9378262888190459e-05 4.0507295247723763e-04 0.0000000000000000e+00  -4.6619246885824700e-05 4.5611663599749117e-04 0.0000000000000000e+00  -5.2259081344417492e-05 5.1393575466533942e-04 0.0000000000000000e+00  -5.9197363433756684e-05 5.7761591606625450e-04 0.0000000000000000e+00  -6.6021480206997251e-05 6.4503754795872245e-04 0.0000000000000000e+00  -7.3187246960854262e-05 7.1536479085379794e-04 0.0000000000000000e+00  -8.4117626788114040e-05 7.8623779248099485e-04 0.0000000000000000e+00  -9.7933616850633262e-05 8.5831144449467680e-04 0.0000000000000000e+00  -1.1551126482790064e-04 9.3185243144591084e-04 0.0000000000000000e+00  -1.3654423710415283e-04 1.0055234021214699e-03 0.0000000000000000e+00  -1.6167261416102270e-04 1.0822814129844091e-03 0.0000000000000000e+00  -1.9014363324776809e-04 1.1632950125111594e-03 0.0000000000000000e+00  -2.1972840846190968e-04 1.2503202018677674e-03 0.0000000000000000e+00  -2.4627728407979949e-04 1.3418595138062904e-03 0.0000000000000000e+00  -2.6837714461611675e-04 1.4455778491122967e-03 0.0000000000000000e+00  -2.8867404288081245e-04 1.5629465980351138e-03 0.0000000000000000e+00  -3.0569989887009250e-04 1.6798510639651123e-03 0.0000000000000000e+00  -3.0880221452131093e-04 1.8147800595980693e-03 0.0000000000000000e+00  -3.0959605617829160e-04 1.9554326705752086e-03 0.0000000000000000e+00  -2.9844821816962048e-04 2.1014995338476689e-03 0.0000000000000000e+00  -2.8047519703831429e-04 2.2584777397638631e-03 0.0000000000000000e+00  -2.5830791790094687e-04 2.4131383982757622e-03 0.0000000000000000e+00  -2.3014670241794269e-04 2.5734140265654178e-03 0.0000000000000000e+00  -2.0089095792158936e-04 2.7339734446947136e-03 0.0000000000000000e+00  -1.7210611245400490e-04 2.8917295244845573e-03 0.0000000000000000e+00  4.3042254527252816e-04 2.7850830160677589e-03 0.0000000000000000e+00  3.9232638014138785e-04 2.6363947793840744e-03 0.0000000000000000e+00  3.5071089229521103e-04 2.4859071056610518e-03 0.0000000000000000e+00  3.0756619524459979e-04 2.3420348172212388e-03 0.0000000000000000e+00  2.6404961312629017e-04 2.2051253283193683e-03 0.0000000000000000e+00  2.2503569209562707e-04 2.0715350325806472e-03 0.0000000000000000e+00  1.9181106040847297e-04 1.9490360981059558e-03 0.0000000000000000e+00  1.6066227966912420e-04 1.8360803701100612e-03 0.0000000000000000e+00  1.4287740727951095e-04 1.7253319693858297e-03 0.0000000000000000e+00  1.3116581917282539e-04 1.6254237429755760e-03 0.0000000000000000e+00  1.2835465718859392e-04 1.5249818857291958e-03 0.0000000000000000e+00  1.3579233526613783e-04 1.4339669561842397e-03 0.0000000000000000e+00  1.4446408952741070e-04 1.3474688609975800e-03 0.0000000000000000e+00  1.5727339025800000e-04 1.2538987933542040e-03 0.0000000000000000e+00  1.7607634255218670e-04 1.1688037516178619e-03 0.0000000000000000e+00  1.9139064951548203e-04 1.0836183864588597e-03 0.0000000000000000e+00  2.0706004120034596e-04 9.9345523942576857e-04 0.0000000000000000e+00  2.1964814824246740e-04 9.0958274084569537e-04 0.0000000000000000e+00  2.2601911294006398e-04 8.2544509789239618e-04 0.0000000000000000e+00  2.2981890990022140e-04 7.4104916285078605e-04 0.0000000000000000e+00  2.2603491321753722e-04 6.6422426477177031e-04 0.0000000000000000e+00  2.1740318468399842e-04 5.9136297890283499e-04 0.0000000000000000e+00  2.0640415241173093e-04 5.2330557070122147e-04 0.0000000000000000e+00  1.9015229690323083e-04 4.6499121387644346e-04 0.0000000000000000e+00  1.7260121616998112e-04 4.1419120264925372e-04 0.0000000000000000e+00  1.5536000087774921e-04 3.7061094294325061e-04 0.0000000000000000e+00  1.3617818818067201e-04 3.3628889744934424e-04 0.0000000000000000e+00  1.1903594704459357e-04 3.1043833934326487e-04 0.0000000000000000e+00  1.0377099971805999e-04 2.8945778349468321e-04 0.0000000000000000e+00  9.0657588925206355e-05 2.7581572996531882e-04 0.0000000000000000e+00  7.7443881633744983e-05 2.6756519800647037e-04 0.0000000000000000e+00  6.7059473933397650e-05 2.6114987874718154e-04 0.0000000000000000e+00  5.7466840512311486e-05 2.5945800094789726e-04 0.0000000000000000e+00  4.9805767959725497e-05 2.5873019777323798e-04 0.0000000000000000e+00  4.2711573387499771e-05 2.6008905989442814e-04 0.0000000000000000e+00  3.7672127583953596e-05 2.6211300807783063e-04 0.0000000000000000e+00  3.4577295033633854e-05 2.6434227112739781e-04 0.0000000000000000e+00  3.4694332122782181e-05 2.6492744133537648e-04 0.0000000000000000e+00  3.9021325097937148e-05 2.6334517337016654e-04 0.0000000000000000e+00  4.7764643825961659e-05 2.5778463391688047e-04 0.0000000000000000e+00  6.0495830171252762e-05 2.4585538238437477e-04 0.0000000000000000e+00  7.5199872660699653e-05 2.2747204931433798e-04 0.0000000000000000e+00  9.2075807447026465e-05 1.9916933551456903e-04 0.0000000000000000e+00  1.1135988178099982e-04 1.6350775198812850e-04 0.0000000000000000e+00  1.2744163659288518e-04 1.1714296556170101e-04 0.0000000000000000e+00  1.4179642922430263e-04 6.2686891963491812e-05 0.0000000000000000e+00  1.5084346938021442e-04 2.4681221456904601e-06 0.0000000000000000e+00  1.5569902082609890e-04 -6.1605757849574142e-05 0.0000000000000000e+00  1.5592706800279335e-04 -1.2769666190483113e-04 0.0000000000000000e+00  1.5265279500721761e-04 -1.9374836068878064e-04 0.0000000000000000e+00  1.4567396480230565e-04 -2.5909536705657083e-04 0.0000000000000000e+00  1.3684649743322816e-04 -3.2000318678316410e-04 0.0000000000000000e+00  1.2267519302039203e-04 -3.7673174845321569e-04 0.0000000000000000e+00  1.0899766535219456e-04 -4.2803611181621511e-04 0.0000000000000000e+00  9.0590035237873503e-05 -4.6764909347953368e-04 0.0000000000000000e+00  6.9697420492355908e-05 -5.0425847369711500e-04 0.0000000000000000e+00  4.7688142412840833e-05 -5.2514126655469728e-04 0.0000000000000000e+00  2.0441236604736058e-05 -5.3459408812689087e-04 0.0000000000000000e+00  -1.9064436210527613e-06 -5.3216222694718943e-04 0.0000000000000000e+00  -2.4690743371325890e-05 -5.1468429809296606e-04 0.0000000000000000e+00  -4.4035017681911417e-05 -4.8862419274983161e-04 0.0000000000000000e+00  -6.0843251071150801e-05 -4.5032223430534695e-04 0.0000000000000000e+00  -7.7455200499466323e-05 -4.0403155377084456e-04 0.0000000000000000e+00  -8.7590589324733266e-05 -3.5169495560034673e-04 0.0000000000000000e+00  -9.3901778836414775e-05 -2.9166410956362853e-04 0.0000000000000000e+00  -9.3564232968366861e-05 -2.3241164497040978e-04 0.0000000000000000e+00  -8.5679422094916911e-05 -1.7324832970947883e-04 0.0000000000000000e+00  -7.3408265462957700e-05 -1.1761900423503469e-04 0.0000000000000000e+00  -5.5458075994666882e-05 -7.0629378670011706e-05 0.0000000000000000e+00  -3.0733750588977574e-05 -3.6156431040040382e-05 0.0000000000000000e+00  3.1154300580433733e-04 2.9620940268331192e-03 0.0000000000000000e+00  9.4918450321006116e-06 3.0186996273340316e-03 0.0000000000000000e+00  4.9173351562820463e-06 -5.6171903962152719e-05 0.0000000000000000e+00  -5.7622135293505509e-05 1.3953432610852472e-03 0.0000000000000000e+00  -4.1541345672441152e-05 1.9942142111159015e-03 0.0000000000000000e+00  1.5584434740438854e-05 -2.8012196632986013e-04 0.0000000000000000e+00  6.1439680999026002e-05 9.1509393769111742e-04 0.0000000000000000e+00  6.9943046960413197e-07 1.1436339975164161e-03 0.0000000000000000e+00  9.6191743518376419e-06 -4.7243774404787114e-04 0.0000000000000000e+00  5.8776502208522192e-05 2.4405702065276968e-03 0.0000000000000000e+00  1.7168454240106279e-05 -5.5143812783139154e-04 0.0000000000000000e+00  1.8885393541916607e-05 -3.9420396594237674e-04 0.0000000000000000e+00  8.9006456737988313e-05 6.9318205389165923e-04 0.0000000000000000e+00  3.1985182014895715e-05 -1.5455132339245564e-04 0.0000000000000000e+00  8.2553828198292560e-05 4.9490109153051587e-04 0.0000000000000000e+00  3.4470240493172076e-05 5.4853118048263200e-05 0.0000000000000000e+00  1.4514726502663286e-05 2.2868580641630516e-04 0.0000000000000000e+00  6.6492156735269037e-05 3.5143173680317281e-04 0.0000000000000000e+00  4.8859795018575930e-05 2.8327439279147391e-04 0.0000000000000000e+00  4.6457790660805314e-06 2.7797037680446913e-04 0.0000000000000000e+00  1.6783056040320393e-05 2.8137528012931037e-04 0.0000000000000000e+00  3.8292676533371552e-05 2.6890743903828509e-04 0.0000000000000000e+00  2.1365206588912020e-05 -5.3445841578108407e-04 0.0000000000000000e+00  -7.2483807553606590e-05 1.7271272390518894e-03 0.0000000000000000e+00  2.7479367287156078e-05 2.7518445093279483e-04 0.0000000000000000e+00  2.6986282762043664e-05 -2.7210609512167593e-04 0.0000000000000000e+00  2.3538494749210710e-05 1.6807843783810570e-04 0.0000000000000000e+00  1.2152693443700395e-05 -3.8539689543181440e-04 0.0000000000000000e+00  1.5723790609653459e-04 2.7021350475776975e-03 0.0000000000000000e+00  1.7708548607549529e-05 -1.5810813841618608e-04 0.0000000000000000e+00  3.9719434276749521e-05 3.0665199459218966e-04 0.0000000000000000e+00  5.6054809445121020e-05 5.8173013305769933e-04 0.0000000000000000e+00  4.3237041173387433e-05 7.9409141747820752e-04 0.0000000000000000e+00  1.8437600507651878e-05 2.5979990950580607e-04 0.0000000000000000e+00  4.7947562192756195e-05 4.0952190536435980e-04 0.0000000000000000e+00  -5.3965119355329672e-06 1.0165346858487566e-03 0.0000000000000000e+00  3.5366922150348750e-05 2.7150115954607129e-04 0.0000000000000000e+00  -7.4119785954391887e-05 1.2531534665253324e-03 0.0000000000000000e+00  1.4435876415894691e-05 2.8013751498181470e-04 0.0000000000000000e+00  6.0889460717452232e-05 -5.3451235274338993e-05 0.0000000000000000e+00  7.6875265724206153e-06 -5.2916899819219936e-04 0.0000000000000000e+00  5.5492639995912660e-05 2.2005582806602095e-03 0.0000000000000000e+00  -1.1502159285278629e-05 1.5566863646728751e-03 0.0000000000000000e+00  6.2503288370184149e-06 -4.8060959476789282e-04 0.0000000000000000e+00  -1.5294243944041566e-04 1.4954313676324540e-03 0.0000000000000000e+00  5.2379251507570549e-05 -4.6147075821684528e-04 0.0000000000000000e+00  3.3249782421478111e-05 1.3218155997697680e-03 0.0000000000000000e+00  8.9273056608735058e-05 1.0741198676445917e-03 0.0000000000000000e+00  1.3441766525987460e-04 8.4013074732407244e-04 0.0000000000000000e+00  -9.6199918911879590e-05 2.2876586133553692e-03 0.0000000000000000e+00  3.1786315758357256e-05 -5.1889528117152596e-04 0.0000000000000000e+00  1.1529380429536328e-04 4.3625966018292540e-04 0.0000000000000000e+00  1.4032310854725566e-04 6.1779699050653356e-04 0.0000000000000000e+00  -1.0965429498698104e-05 2.5460179770863035e-04 0.0000000000000000e+00  -1.1135003568332278e-05 -7.7856573609312211e-05 0.0000000000000000e+00  7.7560853912350236e-05 3.0187131850092799e-04 0.0000000000000000e+00  6.0542394634706963e-05 2.7380695734447607e-04 0.0000000000000000e+00  -1.5834718848060421e-06 2.8581170218961957e-04 0.0000000000000000e+00  -1.0359567886388312e-05 -3.0037097160124131e-05 0.0000000000000000e+00  1.0238232596865092e-05 -2.5667767484257286e-05 0.0000000000000000e+00  2.7085209427719272e-05 2.7340572732101678e-04 0.0000000000000000e+00  7.0827519119253028e-05 9.6480706775512015e-05 0.0000000000000000e+00  6.6794494032430428e-05 -3.5111007822474018e-04 0.0000000000000000e+00  -2.6922858998942548e-05 -3.2764096417804787e-04 0.0000000000000000e+00  -1.7322526938074010e-05 -4.3965885652999168e-04 0.0000000000000000e+00  1.7052271379602372e-05 2.8205876291028439e-04 0.0000000000000000e+00  7.4886116307447859e-05 -2.2787747077911529e-04 0.0000000000000000e+00  5.2955919668851053e-05 1.9282385658142881e-04 0.0000000000000000e+00  2.6344440478841715e-05 -5.4353512622385867e-04 0.0000000000000000e+00  -1.5771024175203916e-04 1.8302646289701540e-03 0.0000000000000000e+00  3.1039158682855686e-05 1.8414015277613115e-03 0.0000000000000000e+00  1.4118825997990044e-05 -5.4569096606630154e-04 0.0000000000000000e+00  -3.0264075623527175e-05 -1.9711615232482452e-04 0.0000000000000000e+00  -5.9003042192081091e-05 2.6118105089545829e-03 0.0000000000000000e+00  4.4479425559249216e-05 2.6600582109140893e-04 0.0000000000000000e+00  3.0050723206736365e-05 2.7205072028592891e-04 0.0000000000000000e+00  -2.1588558890771117e-05 -3.5318677384374978e-04 0.0000000000000000e+00  5.4528820474633205e-05 -3.2428590140166073e-04 0.0000000000000000e+00  4.9663180375143026e-05 -4.4291679306654436e-04 0.0000000000000000e+00  -1.4766197078933121e-05 1.0356665020183415e-04 0.0000000000000000e+00  -2.9700939274318517e-05 -2.2568750660602400e-04 0.0000000000000000e+00  -2.0455210038365420e-05 1.9314468001770246e-04 0.0000000000000000e+00  -2.3059897605992891e-05 -1.2176180959530426e-04 0.0000000000000000e+00  5.5332091453274996e-06 2.8348387588998372e-03 0.0000000000000000e+00  6.2562203519540523e-05 1.2252617052876966e-03 0.0000000000000000e+00  1.1871627357171896e-04 9.8517544476823724e-04 0.0000000000000000e+00  2.6810121794526280e-05 -5.4232303747101668e-04 0.0000000000000000e+00  1.4895409309010382e-04 7.5225738536884880e-04 0.0000000000000000e+00  -1.4006912458825398e-04 2.1089807823487573e-03 0.0000000000000000e+00  1.3937042642590431e-04 5.4100205501231736e-04 0.0000000000000000e+00  1.0786415892848742e-04 3.8375095145494546e-04 0.0000000000000000e+00  -1.4864114041164319e-05 8.3656768121232653e-07 0.0000000000000000e+00  9.0758540979901555e-05 3.2971795254191182e-04 0.0000000000000000e+00  -1.1867662646194926e-05 2.7267209221209159e-04 0.0000000000000000e+00  5.5605028503766805e-05 2.6747889936293203e-04 0.0000000000000000e+00  4.7374642126046614e-06 2.8725896875529845e-04 0.0000000000000000e+00  1.9708601019607753e-04 2.5455125131883284e-03 0.0000000000000000e+00  -1.7539838878070100e-04 1.6254246685158832e-03 0.0000000000000000e+00  4.5945350025142769e-05 -5.0671608043606465e-04 0.0000000000000000e+00  5.1622580193532691e-05 -2.1097843503584110e-04 0.0000000000000000e+00  3.1957996059000626e-05 -1.0483370183854775e-04 0.0000000000000000e+00  2.4533450341280293e-05 2.8714986776910418e-04 0.0000000000000000e+00  2.2865867495556392e-05 2.7572344294251721e-04 0.0000000000000000e+00  2.2304741739174244e-05 3.6555242599419857e-04 0.0000000000000000e+00  -2.4125123819414371e-05 9.3894150642995558e-04 0.0000000000000000e+00  2.5028658864067137e-05 5.1798426352203176e-04 0.0000000000000000e+00  1.5991819141875230e-05 7.2069533234098203e-04 0.0000000000000000e+00  2.0208693500294985e-05 2.7019984568232554e-04 0.0000000000000000e+00  2.7238150948772835e-05 2.7023930129407197e-04 0.0000000000000000e+00  8.5794826565708008e-05 7.2688295808366804e-06 0.0000000000000000e+00  4.0679318590217373e-05 2.3849156271042490e-04 0.0000000000000000e+00  -1.4082852391199019e-04 1.3347524351779172e-03 0.0000000000000000e+00  8.8366526156912745e-05 -1.2129532343413106e-04 0.0000000000000000e+00  -8.0144130913189655e-05 1.1648540752063235e-03 0.0000000000000000e+00  8.7755344662578177e-06 -5.4284761339401077e-04 0.0000000000000000e+00  -1.0046630090624441e-05 -4.9976943597449430e-04 0.0000000000000000e+00  1.4787047394233235e-04 2.3313295818247820e-03 0.0000000000000000e+00  8.8848906850084257e-05 2.0608014855593411e-03 0.0000000000000000e+00  9.2807988533079847e-06 8.6832175544445972e-04 0.0000000000000000e+00  3.5712454995692313e-05 6.5194153069686770e-04 0.0000000000000000e+00  2.8831661802412390e-05 3.3133861632241626e-04 0.0000000000000000e+00  -5.4942859705102555e-05 1.0884157202253005e-03 0.0000000000000000e+00  3.5878683878363679e-05 4.6185549500657783e-04 0.0000000000000000e+00  2.9056487346806090e-05 2.7601411260967375e-04 0.0000000000000000e+00  1.7285437425720508e-05 2.7629651537868172e-04 0.0000000000000000e+00  7.8795402602276539e-07 -5.1331697317369147e-04 0.0000000000000000e+00  2.9381096433908953e-05 1.6702769813411924e-03 0.0000000000000000e+00  2.7593607452197774e-05 1.4725373279930567e-03 0.0000000000000000e+00  -1.1559846700162908e-05 -4.3561292485834382e-04 0.0000000000000000e+00  6.9110172935009297e-05 2.8431540682640432e-04 0.0000000000000000e+00  7.0834940441165189e-05 -4.0589425242211507e-04 0.0000000000000000e+00  9.5101978925138305e-07 -1.7856386778757412e-05 0.0000000000000000e+00  -6.8355590749886785e-05 2.4548705716491369e-03 