<?xml version="1.0"?>
<VTKFile type="UnstructuredGrid"  version="0.1"  >
<UnstructuredGrid>
<Piece  NumberOfPoints="1419" NumberOfCells="2698">
<Points>
<DataArray  type="Float64"  NumberOfComponents="3"  format="ascii">0 0 0  0 0.41 0  2.5 0 0  2.5 0.41 0  0.6 0.19 0  0.6 0.21 0  0.25 0.2 0  0.15 0.2 0  0.2489897948556636 0.21 0  0.2489897948556636 0.19 0  0.6 0.2 0  0 0.3807142857143437 0  0 0.3514285714286952 0  0 0.3221428571430699 0  0 0.29285714285744 0  0 0.2635714285718054 0  0 0.2342857142861561 0  0 0.2050000000005308 0  0 0.175714285714732 0  0 0.1464285714289574 0  0 0.1171428571431897 0  0 0.08785714285737878 0  0 0.05857142857161107 0  0 0.02928571428580012 0  0.03015443760436003 0 0  0.06140001986583606 0 0  0.09377624077125973 0 0  0.1273239957535082 0 0  0.1620856860351972 0 0  0.1981052433264291 0 0  0.235428184091502 0 0  0.2741016576309132 0 0  0.3141745521465447 0 0  0.3556974926295285 0 0  0.3987229542472677 0 0  0.4433053055141081 0 0  0.4895008759286886 0 0  0.5373680609405097 0 0  0.5869673343216626 0 0  0.6383613676634521 0 0  0.6916151138468254 0 0  0.7467958595648856 0 0  0.8039733463919316 0 0  0.8632198139502143 0 0  0.9246101326867038 0 0  0.9882218810934433 0 0  1.054135445558498 0 0  1.122434100542598 0 0  1.193204177141305 0 0  1.266535089879536 0 0  1.342519516046404 0 0  1.421253448503939 0 0  1.502836389106271 0 0  1.587371439758838 0 0  1.674965418777374 0 0  1.765729001825544 0 0  1.859776908880082 0 0  1.957227977487062 0 0  2.058205329869943 0 0  2.162836591189951 0 0  2.271253957290865 0 0  2.383594446803425 0 0  2.5 0.1024999999997612 0  2.5 0.2049999999994743 0  2.5 0.3074999999997183 0  2.383594446803656 0.41 0  2.271253957291315 0.41 0  2.162836591190598 0.41 0  2.058205329870775 0.41 0  1.957227977488067 0.41 0  1.859776908881246 0.41 0  1.765729001826854 0.41 0  1.674965418778818 0.41 0  1.58737143976041 0.41 0  1.502836389107956 0.41 0  1.421253448505726 0.41 0  1.342519516048286 0.41 0  1.266535089881505 0.41 0  1.193204177143353 0.41 0  1.122434100544716 0.41 0  1.05413544556068 0.41 0  0.9882218810956305 0.41 0  0.9246101326886647 0.41 0  0.8632198139519631 0.41 0  0.8039733463934788 0.41 0  0.7467958595662458 0.41 0  0.6916151138480078 0.41 0  0.6383613676644679 0.41 0  0.5869673343225223 0.41 0  0.5373680609412221 0.41 0  0.4895008759292634 0.41 0  0.4433053055145528 0.41 0  0.3987229542475914 0.41 0  0.3556974926297398 0.41 0  0.3141745521466497 0.41 0  0.2741016576310038 0.41 0  0.2354281840915826 0.41 0  0.1981052433265003 0.41 0  0.1620856860352591 0.41 0  0.1273239957535623 0.41 0  0.09377624077128965 0.41 0  0.06140001986584975 0.41 0  0.03015443760436654 0.41 0  0.2497468076502589 0.2050254481002335 0  0.2497468076502614 0.1949745518997913 0  0.2469965252529372 0.1829317073451959 0  0.2439893735792749 0.1762316384219906 0  0.2400332147834255 0.1700443375285386 0  0.2352133972704371 0.1645032867342007 0  0.2296339016332438 0.1597280261969788 0  0.2234150974217223 0.1558215752574715 0  0.2166911463437691 0.1528682099456123 0  0.2096071079204251 0.1509316448471593 0  0.2023158100364996 0.1500536585536553 0  0.194974551899914 0.1502531923497262 0  0.1877417105387872 0.1515259415822739 0  0.1807733240461124 0.153844448527136 0  0.1742197252835808 0.15715869474974 0  0.1682222986673531 0.1613971801805478 0  0.162910430003803 0.1664684656256651 0  0.1583987151779087 0.1722631454351573 0  0.1547844879126891 0.178656207771761 0  0.1521457199348551 0.1855097315605723 0  0.1505393388476355 0.1926758619366523 0  0.1505393388476328 0.2073241380633295 0  0.1521457199348437 0.2144902684393899 0  0.1547844879126531 0.221343792228163 0  0.1583987151778488 0.2277368545647528 0  0.1629104300036858 0.2335315343742052 0  0.1682222986671726 0.2386028198193036 0  0.1742197252833576 0.2428413052501257 0  0.1807733240458683 0.2461555514727623 0  0.1877417105384929 0.2484740584176516 0  0.1949745518995776 0.2497468076502398 0  0.202315810036185 0.2499463414463592 0  0.2096071079201568 0.2490683551528932 0  0.2166911463435495 0.2471317900544655 0  0.2234150974215506 0.2441784247426195 0  0.2296339016331197 0.2402719738031125 0  0.2352133972703547 0.2354967132658811 0  0.2400332147833751 0.2299556624715287 0  0.2439893735792577 0.2237683615780412 0  0.246996525252926 0.2170682926548348 0  0.25645809709277 0.21 0  0.2639263993298655 0.21 0  0.271394701566961 0.21 0  0.2788630038040554 0.21 0  0.2863313060411479 0.21 0  0.2937996082782405 0.21 0  0.301267910515333 0.21 0  0.3087362127524279 0.21 0  0.3162045149895234 0.21 0  0.3236728172265972 0.21 0  0.3311411194636928 0.21 0  0.3386094217007701 0.21 0  0.3460777239378666 0.21 0  0.3535460261749672 0.21 0  0.3610143284120516 0.21 0  0.3684826306491596 0.21 0  0.3759509328862226 0.21 0  0.383419235123329 0.21 0  0.3908875373604028 0.21 0  0.3983558395975142 0.21 0  0.4058241418345938 0.21 0  0.4132924440716992 0.21 0  0.4207607463087888 0.21 0  0.4282290485459029 0.21 0  0.4356973507830418 0.21 0  0.4431656530201649 0.21 0  0.4506339552573136 0.21 0  0.4581022574944306 0.21 0  0.4655705597315852 0.21 0  0.4730388619686996 0.21 0  0.480507164205851 0.21 0  0.4879754664429498 0.21 0  0.4954437686800938 0.21 0  0.502912070917267 0.21 0  0.5103803731544119 0.21 0  0.5178486753915261 0.21 0  0.5253169776286404 0.21 0  0.5327852798657868 0.21 0  0.5402535821029386 0.21 0  0.54772188434007 0.21 0  0.5551901865771842 0.21 0  0.5626584888143201 0.21 0  0.5701267910514778 0.21 0  0.5775950932886138 0.21 0  0.5850633955257281 0.21 0  0.5925316977628483 0.21 0  0.6 0.2050000000000054 0  0.6 0.1950000000000217 0  0.5925316977628897 0.19 0  0.5850633955257988 0.19 0  0.5775950932887378 0.19 0  0.5701267910515998 0.19 0  0.5626584888145268 0.19 0  0.5551901865773963 0.19 0  0.547721884340339 0.19 0  0.5402535821032429 0.19 0  0.5327852798661811 0.19 0  0.5253169776290537 0.19 0  0.5178486753919799 0.19 0  0.5103803731549078 0.19 0  0.502912070917822 0.19 0  0.4954437686807294 0.19 0  0.4879754664436223 0.19 0  0.4805071642065402 0.19 0  0.4730388619694271 0.19 0  0.4655705597323621 0.19 0  0.4581022574952563 0.19 0  0.4506339552581777 0.19 0  0.4431656530210671 0.19 0  0.4356973507839815 0.19 0  0.4282290485468779 0.19 0  0.4207607463097617 0.19 0  0.4132924440726327 0.19 0  0.4058241418354857 0.19 0  0.3983558395983636 0.19 0  0.3908875373612097 0.19 0  0.3834192351240934 0.19 0  0.3759509328869369 0.19 0  0.3684826306498175 0.19 0  0.361014328412667 0.19 0  0.3535460261755617 0.19 0  0.3460777239384295 0.19 0  0.3386094217012945 0.19 0  0.3311411194641595 0.19 0  0.3236728172270245 0.19 0  0.3162045149898895 0.19 0  0.3087362127527544 0.19 0  0.3012679105156187 0.19 0  0.2937996082784807 0.19 0  0.2863313060413428 0.19 0  0.2788630038042048 0.19 0  0.2713947015670686 0.19 0  0.2639263993299336 0.19 0  0.2564580970927985 0.19 0  0.2607803159922026 0.2000727136295815 0  0.5887803774232762 0.2001272386983733 0  0.5745072403740523 0.2002044435018727 0  0.5511891430099709 0.2001122610077113 0  0.2751288526855082 0.20000000000002 0  0.5365194309847112 0.1999999999999436 0  0.2894621222999649 0.1998691686390484 0  0.5215828265105155 0.1999999999999228 0  0.3127789816668748 0.1998657885438805 0  0.3274069683451451 0.2000000000000796 0  0.5066462220363641 0.199999999999908 0  0.3650630746574081 0.199866017807523 0  0.476773013087985 0.1999999999998713 0  0.3417402379596385 0.1998691686391011 0  0.3796850840047755 0.200000000000134 0  0.4618364086138087 0.1999999999998546 0  0.4917096175621762 0.1999999999998808 0  0.3946216884789568 0.2000000000001512 0  0.446899804139621 0.1999999999998389 0  0.4089549580935208 0.1998691686391595 0  0.4322718174608562 0.200127451265745 0  0.4201487168029707 0.1999966199048527 0  0.3528922713220932 0.2000185703532356 0  0.5633122436674589 0.1999814296467508 0  0.3006558810093873 0.1999966199048318 0  0.5815926498168407 0.1966545283159175 0  0.2677053789419034 0.1964246479135325 0  0.5290511287476175 0.1970915826863981 0  0.5439877332217911 0.197091582686394 0  0.2825131256993216 0.2035478995978015 0  0.3199386661080599 0.202908417313604 0  0.4842413153250809 0.1970915826863873 0  0.5141145242734466 0.1970915826863843 0  0.3722167817676917 0.2029084173136195 0  0.4693047108508938 0.1970915826863783 0  0.3348752705822316 0.202908417313609 0  0.3871533862418661 0.2029084173136212 0  0.4543681063767183 0.1970915826863795 0  0.4991779197992749 0.1970915826863902 0  0.4020059614928624 0.203547899597858 0  0.4394315019025246 0.1970915826863714 0  0.2550657455369551 0.2034088125358657 0  0.2548908499171161 0.1966940311614271 0  0.5946539510196798 0.2024302972968126 0  0.267698176732111 0.2039977513680092 0  0.4261685417851465 0.196409292431739 0  0.3590076176283495 0.196411355804271 0  0.5571672426447437 0.2036011176410121 0  0.3066757059912147 0.1964092924317024 0  0.594380730180568 0.1966558399668133 0  0.4842413153245942 0.2040749161535287 0  0.4693047108503577 0.2040749161535231 0  0.3871533862424271 0.1959250838464788 0  0.372246743208829 0.1959123236376545 0  0.5141145242731028 0.2040749161535395 0  0.4543681063761134 0.2040749161535186 0  0.4019979587101454 0.1959834479682427 0  0.4394608940728603 0.2040870543693135 0  0.5439623148931173 0.2040856076781014 0  0.5290511287473298 0.2040749161535501 0  0.4991779197988497 0.2040749161535382 0  0.3347912413592433 0.1959225448935183 0  0.3199680582793816 0.1959123018030061 0  0.2825051229162361 0.1959834479681729 0  0.3590471196690275 0.2036304442587945 0  0.5571594006495384 0.1963685282145804 0  0.3067669986803285 0.203627750582736 0  0.4262598344738712 0.2036568242185335 0  0.5814408164431408 0.2041285596160068 0  0.5688286748170428 0.1961819304477386 0  0.4145905603063645 0.2038180695522843 0  0.3473758401724931 0.2038180695522752 0  0.2950977245128307 0.2038180695522663 0  0.5688286748170693 0.203818069552238 0  0.2950977245127906 0.1961819304477774 0  0.3473758401723931 0.1961819304478349 0  0.4145905603061963 0.1961819304479011 0  0.2601812407614425 0.2056861609747042
[...]
<PointData  Vectors="f_51-0"> 
<DataArray  type="Float64"  Name="f_51-0"  NumberOfComponents="3" format="ascii">0.0000000000000000e+00 0.0000000000000000e+00 0.0000000000000000e+00  0.0000000000000000e+00 0.0000000000000000e+00 0.0000000000000000e+00  0.0000000000000000e+00 0.0000000000000000e+00 0.0000000000000000e+00  0.0000000000000000e+00 0.0000000000000000e+00 0.0000000000000000e+00  -1.5426535987913612e-01 1.5676543967143880e-01 0.0000000000000000e+00  -1.6199653972684117e-01 -1.5746145057187794e-01 0.0000000000000000e+00  0.0000000000000000e+00 0.0000000000000000e+00 0.0000000000000000e+00  0.0000000000000000e+00 0.0000000000000000e+00 0.0000000000000000e+00  0.0000000000000000e+00 0.0000000000000000e+00 0.0000000000000000e+00  0.0000000000000000e+00 0.0000000000000000e+00 0.0000000000000000e+00  -2.4555296943633828e-01 -3.1234418838109674e-03 0.0000000000000000e+00  1.0000000000000000e+00 0.0000000000000000e+00 0.0000000000000000e+00  1.0000000000000000e+00 0.0000000000000000e+00 0.0000000000000000e+00  1.0000000000000000e+00 0.0000000000000000e+00 0.0000000000000000e+00  1.0000000000000000e+00 0.0000000000000000e+00 0.0000000000000000e+00  1.0000000000000000e+00 0.0000000000000000e+00 0.0000000000000000e+00  1.0000000000000000e+00 0.0000000000000000e+00 0.0000000000000000e+00  1.0000000000000000e+00 0.0000000000000000e+00 0.0000000000000000e+00  1.0000000000000000e+00 0.0000000000000000e+00 0.0000000000000000e+00  1.0000000000000000e+00 0.0000000000000000e+00 0.0000000000000000e+00  1.0000000000000000e+00 0.0000000000000000e+00 0.0000000000000000e+00  1.0000000000000000e+00 0.0000000000000000e+00 0.0000000000000000e+00  1.0000000000000000e+00 0.0000000000000000e+00 0.0000000000000000e+00  1.0000000000000000e+00 0.0000000000000000e+00 0.0000000000000000e+00  0.0000000000000000e+00 0.0000000000000000e+00 0.0000000000000000e+00  0.0000000000000000e+00 0.0000000000000000e+00 0.0000000000000000e+00  0.0000000000000000e+00 0.0000000000000000e+00 0.0000000000000000e+00  0.0000000000000000e+00 0.0000000000000000e+00 0.0000000000000000e+00  0.0000000000000000e+00 0.0000000000000000e+00 0.0000000000000000e+00  0.0000000000000000e+00 0.0000000000000000e+00 0.0000000000000000e+00  0.0000000000000000e+00 0.0000000000000000e+00 0.0000000000000000e+00  0.0000000000000000e+00 0.0000000000000000e+00 0.0000000000000000e+00  0.0000000000000000e+00 0.0000000000000000e+00 0.0000000000000000e+00  0.0000000000000000e+00 0.0000000000000000e+00 0.0000000000000000e+00  0.0000000000000000e+00 0.0000000000000000e+00 0.0000000000000000e+00  0.0000000000000000e+00 0.0000000000000000e+00 0.0000000000000000e+00  0.0000000000000000e+00 0.0000000000000000e+00 0.0000000000000000e+00  0.0000000000000000e+00 0.0000000000000000e+00 0.0000000000000000e+00  0.0000000000000000e+00 0.0000000000000000e+00 0.0000000000000000e+00  0.0000000000000000e+00 0.0000000000000000e+00 0.0000000000000000e+00  0.0000000000000000e+00 0.0000000000000000e+00 0.0000000000000000e+00  0.0000000000000000e+00 0.0000000000000000e+00 0.0000000000000000e+00  0.0000000000000000e+00 0.0000000000000000e+00 0.0000000000000000e+00  0.0000000000000000e+00 0.0000000000000000e+00 0.0000000000000000e+00  0.0000000000000000e+00 0.0000000000000000e+00 0.0000000000000000e+00  0.0000000000000000e+00 0.0000000000000000e+00 0.0000000000000000e+00  0.0000000000000000e+00 0.0000000000000000e+00 0.0000000000000000e+00  0.0000000000000000e+00 0.0000000000000000e+00 0.0000000000000000e+00  0.0000000000000000e+00 0.0000000000000000e+00 0.0000000000000000e+00  0.0000000000000000e+00 0.0000000000000000e+00 0.0000000000000000e+00  0.0000000000000000e+00 0.0000000000000000e+00 0.0000000000000000e+00  0.0000000000000000e+00 0.0000000000000000e+00 0.0000000000000000e+00  0.0000000000000000e+00 0.0000000000000000e+00 0.0000000000000000e+00  0.0000000000000000e+00 0.0000000000000000e+00 0.0000000000000000e+00  0.0000000000000000e+00 0.0000000000000000e+00 0.0000000000000000e+00  0.0000000000000000e+00 0.0000000000000000e+00 0.0000000000000000e+00  0.0000000000000000e+00 0.0000000000000000e+00 0.0000000000000000e+00  0.0000000000000000e+00 0.0000000000000000e+00 0.0000000000000000e+00  0.0000000000000000e+00 0.0000000000000000e+00 0.0000000000000000e+00  0.0000000000000000e+00 0.0000000000000000e+00 0.0000000000000000e+00  0.0000000000000000e+00 0.0000000000000000e+00 0.0000000000000000e+00  0.0000000000000000e+00 0.0000000000000000e+00 0.0000000000000000e+00  4.1364173103048060e-03 -1.3311577738722751e-05 0.0000000000000000e+00  4.2803409648594993e-03 5.4882913715372880e-06 0.0000000000000000e+00  4.1427849084903602e-03 2.0228964809364424e-05 0.0000000000000000e+00  0.0000000000000000e+00 0.0000000000000000e+00 0.0000000000000000e+00  0.0000000000000000e+00 0.0000000000000000e+00 0.0000000000000000e+00  0.0000000000000000e+00 0.0000000000000000e+00 0.0000000000000000e+00  0.0000000000000000e+00 0.0000000000000000e+00 0.0000000000000000e+00  0.0000000000000000e+00 0.0000000000000000e+00 0.0000000000000000e+00  0.0000000000000000e+00 0.0000000000000000e+00 0.0000000000000000e+00  0.0000000000000000e+00 0.0000000000000000e+00 0.0000000000000000e+00  0.0000000000000000e+00 0.0000000000000000e+00 0.0000000000000000e+00  0.0000000000000000e+00 0.0000000000000000e+00 0.0000000000000000e+00  0.0000000000000000e+00 0.0000000000000000e+00 0.0000000000000000e+00  0.0000000000000000e+00 0.0000000000000000e+00 0.0000000000000000e+00  0.0000000000000000e+00 0.0000000000000000e+00 0.0000000000000000e+00  0.0000000000000000e+00 0.0000000000000000e+00 0.0000000000000000e+00  0.0000000000000000e+00 0.0000000000000000e+00 0.0000000000000000e+00  0.0000000000000000e+00 0.0000000000000000e+00 0.0000000000000000e+00  0.0000000000000000e+00 0.0000000000000000e+00 0.0000000000000000e+00  0.0000000000000000e+00 0.0000000000000000e+00 0.0000000000000000e+00  0.0000000000000000e+00 0.0000000000000000e+00 0.0000000000000000e+00  0.0000000000000000e+00 0.0000000000000000e+00 0.0000000000000000e+00  0.0000000000000000e+00 0.0000000000000000e+00 0.0000000000000000e+00  0.0000000000000000e+00 0.0000000000000000e+00 0.0000000000000000e+00  0.0000000000000000e+00 0.0000000000000000e+00 0.0000000000000000e+00  0.0000000000000000e+00 0.0000000000000000e+00 0.0000000000000000e+00  0.0000000000000000e+00 0.0000000000000000e+00 0.0000000000000000e+00  0.0000000000000000e+00 0.0000000000000000e+00 0.0000000000000000e+00  0.0000000000000000e+00 0.0000000000000000e+00 0.0000000000000000e+00  0.0000000000000000e+00 0.0000000000000000e+00 0.0000000000000000e+00  0.0000000000000000e+00 0.0000000000000000e+00 0.0000000000000000e+00  0.0000000000000000e+00 0.0000000000000000e+00 0.0000000000000000e+00  0.0000000000000000e+00 0.0000000000000000e+00 0.0000000000000000e+00  0.0000000000000000e+00 0.0000000000000000e+00 0.0000000000000000e+00  0.0000000000000000e+00 0.0000000000000000e+00 0.0000000000000000e+00  0.0000000000000000e+00 0.0000000000000000e+00 0.0000000000000000e+00  0.0000000000000000e+00 0.0000000000000000e+00 0.0000000000000000e+00  0.0000000000000000e+00 0.0000000000000000e+00 0.0000000000000000e+00  0.0000000000000000e+00 0.0000000000000000e+00 0.0000000000000000e+00  0.0000000000000000e+00 0.0000000000000000e+00 0.0000000000000000e+00  0.0000000000000000e+00 0.0000000000000000e+00 0.0000000000000000e+00  0.0000000000000000e+00 0.0000000000000000e+00 0.0000000000000000e+00  0.0000000000000000e+00 0.0000000000000000e+00 0.0000000000000000e+00  0.0000000000000000e+00 0.0000000000000000e+00 0.0000000000000000e+00  0.0000000000000000e+00 0.0000000000000000e+00 0.0000000000000000e+00  0.0000000000000000e+00 0.0000000000000000e+00 0.0000000000000000e+00  0.0000000000000000e+00 0.0000000000000000e+00 0.0000000000000000e+00  0.0000000000000000e+00 0.0000000000000000e+00 0.0000000000000000e+00  0.0000000000000000e+00 0.0000000000000000e+00 0.0000000000000000e+00  0.0000000000000000e+00 0.0000000000000000e+00 0.0000000000000000e+00  0.0000000000000000e+00 0.0000000000000000e+00 0.0000000000000000e+00  0.0000000000000000e+00 0.0000000000000000e+00 0.0000000000000000e+00  0.0000000000000000e+00 0.0000000000000000e+00 0.0000000000000000e+00  0.0000000000000000e+00 0.0000000000000000e+00 0.0000000000000000e+00  0.0000000000000000e+00 0.0000000000000000e+00 0.0000000000000000e+00  0.0000000000000000e+00 0.0000000000000000e+00 0.0000000000000000e+00  0.0000000000000000e+00 0.0000000000000000e+00 0.0000000000000000e+00  0.0000000000000000e+00 0.0000000000000000e+00 0.0000000000000000e+00  0.0000000000000000e+00 0.0000000000000000e+00 0.0000000000000000e+00  0.0000000000000000e+00 0.0000000000000000e+00 0.0000000000000000e+00  0.0000000000000000e+00 0.0000000000000000e+00 0.0000000000000000e+00  0.0000000000000000e+00 0.0000000000000000e+00 0.0000000000000000e+00  0.0000000000000000e+00 0.0000000000000000e+00 0.0000000000000000e+00  0.0000000000000000e+00 0.0000000000000000e+00 0.0000000000000000e+00  0.0000000000000000e+00 0.0000000000000000e+00 0.0000000000000000e+00  0.0000000000000000e+00 0.0000000000000000e+00 0.0000000000000000e+00  0.0000000000000000e+00 0.0000000000000000e+00 0.0000000000000000e+00  0.0000000000000000e+00 0.0000000000000000e+00 0.0000000000000000e+00  0.0000000000000000e+00 0.0000000000000000e+00 0.0000000000000000e+00  0.0000000000000000e+00 0.0000000000000000e+00 0.0000000000000000e+00  0.0000000000000000e+00 0.0000000000000000e+00 0.0000000000000000e+00  0.0000000000000000e+00 0.0000000000000000e+00 0.0000000000000000e+00  0.0000000000000000e+00 0.0000000000000000e+00 0.0000000000000000e+00  0.0000000000000000e+00 0.0000000000000000e+00 0.0000000000000000e+00  0.0000000000000000e+00 0.0000000000000000e+00 0.0000000000000000e+00  0.0000000000000000e+00 0.0000000000000000e+00 0.0000000000000000e+00  0.0000000000000000e+00 0.0000000000000000e+00 0.0000000000000000e+00  0.0000000000000000e+00 0.0000000000000000e+00 0.0000000000000000e+00  0.0000000000000000e+00 0.0000000000000000e+00 0.0000000000000000e+00  0.0000000000000000e+00 0.0000000000000000e+00 0.0000000000000000e+00  0.0000000000000000e+00 0.0000000000000000e+00 0.0000000000000000e+00  3.8720205017288595e-01 -2.2751335649625415e+00 0.0000000000000000e+00  3.8110672172910021e-01 -1.9411809880958562e+00 0.0000000000000000e+00  2.0723299868053102e-01 -1.6447081697675059e+00 0.0000000000000000e+00  1.9407705901438180e-01 -1.6035333083411887e+00 0.0000000000000000e+00  1.2537358157396009e-01 -1.4604699686927505e+00 0.0000000000000000e+00  1.1372887214664566e-01 -1.3530736553301990e+00 0.0000000000000000e+00  1.0469194070944363e-01 -1.3054428291549223e+00 0.0000000000000000e+00  7.8766852037945020e-02 -1.1465534057356885e+00 0.0000000000000000e+00  7.8134658020858450e-02 -1.0772835627935069e+00 0.0000000000000000e+00  4.9028772085020669e-02 -9.9034725992874129e-01 0.0000000000000000e+00  5.8464571881958638e-02 -9.0611502476293160e-01 0.0000000000000000e+00  3.4569004120379117e-02 -8.6426676538659408e-01 0.0000000000000000e+00  3.7246596106459931e-02 -7.5783269252371066e-01 0.0000000000000000e+00  3.8398745494303554e-02 -7.3738667827305537e-01 0.0000000000000000e+00  2.6429059831732108e-02 -6.8288717328037229e-01 0.0000000000000000e+00  3.4974153576950717e-02 -6.4418693497999213e-01 0.0000000000000000e+00  2.0696410609174071e-02 -6.0453415995405646e-01 0.0000000000000000e+00  2.9855077459233024e-02 -5.5630128406052437e-01 0.0000000000000000e+00  1.5956283522617964e-02 -5.3140066788464579e-01 0.0000000000000000e+00  2.3851278308383045e-02 -4.8749143866625871e-01 0.0000000000000000e+00  1.4303591466957295e-02 -4.6558922974295303e-01 0.0000000000000000e+00  1.6256352972857480e-02 -4.1947882538231995e-01 0.0000000000000000e+00  1.6165766994629165e-02 -3.9807438723244731e-01 0.0000000000000000e+00  8.8351150182160547e-03 -3.8207223399940504e-01 0.0000000000000000e+00  1.5063104649069091e-02 -3.5594991883052673e-01 0.0000000000000000e+00  1.0448123898025815e-02 -3.4205556578717172e-01 0.0000000000000000e+00  1.3272522774263381e-02 -3.1716691896670712e-01 0.0000000000000000e+00  8.1553816597438270e-03 -3.0156483737244494e-01 0.0000000000000000e+00  1.1048329581477282e-02 -2.8355118248606181e-01 0.0000000000000000e+00  7.0619006436592425e-03 -2.7101414100820170e-01 0.0000000000000000e+00  9.6216993102932191e-03 -2.5358027704313824e-01 0.0000000000000000e+00  6.3765264955746945e-03 -2.4646904783701409e-01 0.0000000000000000e+00  8.1564258936441605e-03 -2.2595793994122940e-01 0.0000000000000000e+00  4.3305677735998886e-03 -2.1919519469590681e-01 0.0000000000000000e+00  6.4857256305540390e-03 -2.0999668976931271e-01 0.0000000000000000e+00  3.6626954182883203e-03 -2.0537257510115925e-01 0.0000000000000000e+00  5.8618769706187384e-03 -1.9383880632851594e-01 0.0000000000000000e+00  2.5080077776915176e-03 -1.8757018839694464e-01 0.0000000000000000e+00  4.0019167672071809e-03 -1.7892975287821056e-01 0.0000000000000000e+00  8.4365505782923198e-04 -1.7914983130146120e-01 0.0000000000000000e+00  2.6641775427634516e-03 -1.6725303842430164e-01 0.0000000000000000e+00  -1.2547601826471250e-03 -1.6073355179756380e-01 0.0000000000000000e+00  -2.1859047942775316e-03 -1.6825439244111964e-01 0.0000000000000000e+00  -4.0127608399870068e-03 -1.8008561557821520e-01 0.0000000000000000e+00  -1.4425644114595225e-02 -1.9599027849771875e-01 0.0000000000000000e+00  -4.1538553067707477e-02 -2.2572033788212806e-01 0.0000000000000000e+00  -2.5944541893616574e-01 -4.6319249438250720e-02 0.0000000000000000e+00  -2.3889351371770864e-01 3.4699053302471576e-02 0.0000000000000000e+00  -3.9854974969010221e-02 1.9822398202490152e-01 0.0000000000000000e+00  -1.0911516434417718e-02 1.7153054973840062e-01 0.0000000000000000e+00  -2.7618485201808740e-03 1.5826289652336062e-01 0.0000000000000000e+00  -7.9241598813539630e-04 1.4541113495244171e-01 0.0000000000000000e+00  -1.1088440362562841e-04 1.5218087428473517e-01 0.0000000000000000e+00  2.3698445608990809e-03 1.4443790865908684e-01 0.0000000000000000e+00  1.9869281106048176e-03 1.5413847313051357e-01 0.0000000000000000e+00  4.8113429491078909e-03 1.5502082462084960e-01 0.0000000000000000e+00  2.7868526436863345e-03 1.6179688540252002e-01 0.0000000000000000e+00  6.0266231791606195e-03 1.6392440856357635e-01 0.0000000000000000e+00  4.0896698282210263e-03 1.7472426438965169e-01 0.0000000000000000e+00  7.8438219767166910e-03 1.8126630005856539e-01 0.0000000000000000e+00  5.0446140788098183e-03 1.9590246987409168e-01 0.0000000000000000e+00  8.2834686726496985e-03 2.0228884008830797e-01 0.0000000000000000e+00  5.3929480039536307e-03 2.1657009764504170e-01 0.0000000000000000e+00  9.6110554258381775e-03 2.2316775203650813e-01 0.0000000000000000e+00  6.6058782103319584e-03 2.4070002967933660e-01 0.0000000000000000e+00  1.2052306902885942e-02 2.5255982715285580e-01 0.0000000000000000e+00  7.9778630056758278e-03 2.7600370180989486e-01 0.0000000000000000e+00  1.2711376341758241e-02 2.8749817596677429e-01 0.0000000000000000e+00  8.3380190842214340e-03 3.0996546144876036e-01 0.0000000000000000e+00  1.5116114253204166e-02 3.2495496162681331e-01 0.0000000000000000e+00  1.0605523171460473e-02 3.4433676551204367e-01 0.0000000000000000e+00  1.7281212977351367e-02 3.7872082388855455e-01 0.0000000000000000e+00  1.8012395705626846e-02 3.8647118608754472e-01 0.0000000000000000e+00  1.2612699450726484e-02 4.3853714168690838e-01 0.0000000000000000e+00  2.1576553079552412e-02 4.5334552482243246e-01 0.0000000000000000e+00  1.8034787047017425e-02 4.9128621019755453e-01 0.0000000000000000e+00  2.5026930697325141e-02 5.1643771998827903e-01 0.0000000000000000e+00  2.2483575696556436e-02 5.6488548465523192e-01 0.0000000000000000e+00  3.0649301304219036e-02 6.0256597584324101e-01 0.0000000000000000e+00  2.1388568139411725e-02 6.5566254042660421e-01 0.0000000000000000e+00  3.7305952163718833e-02 7.1833961234675969e-01 0.0000000000000000e+00  3.8754428089036667e-02 7.2555683912740987e-01 0.0000000000000000e+00  3.7104235557927745e-02 8.1549254489566836e-01 0.0000000000000000e+00  5.3132670642751692e-02 8.6307192469862848e-01 0.0000000000000000e+00  5.1056284614083493e-02 9.3735252348225329e-01 0.0000000000000000e+00  6.8342661407207059e-02 1.0061823667042131e+00 0.0000000000000000e+00  7.0272581687002095e-02 1.1265272806743194e+00 0.0000000000000000e+00  1.0228146136766868e-01 1.2950245992375595e+00 0.0000000000000000e+00  1.1173962307950945e-01 1.3147047067634412e+00 0.0000000000000000e+00  1.2300880128872604e-01 1.4211148395658943e+00 0.0000000000000000e+00  1.8310633758500611e-01 1.5440766845423544e+00 0.0000000000000000e+00  2.0267263425719326e-01 1.6575020948063384e+00 0.0000000000000000e+00  3.7405061901489595e-01 1.9196387984004295e+00 0.0000000000000000e+00  3.8472723455841906e-01 2.2179394553023801e+00 0.0000000000000000e+00  -7.8887440450617907e-02 -1.2311459203211222e-02 0.0000000000000000e+00  6.8003122464585239e-03 2.5376327308326528e-03 0.0000000000000000e+00  7.3569213853136957e-03 3.9602785954731918e-03 0.0000000000000000e+00  3.1715190075044994e-03 4.6424628235671884e-03 0.0000000000000000e+00  7.2243382045736368e-02 -2.7826942109107012e-02 0.0000000000000000e+00  5.0551678981059240e-03 4.4779065356108467e-03 0.0000000000000000e+00  -2.9721074444240776e-02 -4.1732553103295596e-03 0.0000000000000000e+00  5.1793147949392333e-03 4.3788859928627476e-03 0.0000000000000000e+00  7.3397035317202151e-03 -1.4374625105571821e-02 0.0000000000000000e+00  1.8171766200562036e-03 -5.7888781666276170e-03 0.0000000000000000e+00  5.5381424167914549e-03 4.1130833572144412e-03 0.0000000000000000e+00  1.4825426327168188e-02 -1.0408752534004180e-02 0.0000000000000000e+00  6.6206513937819350e-03 3.8079353906988944e-03 0.0000000000000000e+00  -5.1021722405224998e-03 -1.0226219308904431e-02 0.0000000000000000e+00  9.3809281565636806e-03 -7.2850684775319858e-03 0.0000000000000000e+00  7.2477421551681281e-03 3.5651265978703067e-03 0.0000000000000000e+00  6.0510444655855321e-03 3.9144641791635723e-03 0.0000000000000000e+00  8.3583259172625591e-03 -4.2255275752305765e-03 0.0000000000000000e+00  7.4826609249993370e-03 3.2608139131345068e-03 0.0000000000000000e+00  5.5098849587439892e-03 -5.3216058930933869e-04 0.0000000000000000e+00  1.1767383641008565e-02 2.6050595220393964e-03 0.0000000000000000e+00  1.0234978700161632e-02 1.2713966659761555e-02 0.0000000000000000e+00  1.7993246787414457e-02 1.5559229378460880e-02 0.0000000000000000e+00  2.8898204652337890e-03 1.4544593968943408e-02 0.0000000000000000e+00  2.5341844301911977e-02 2.3878858442403821e-02 0.0000000000000000e+00  5.4416885445013660e-03 8.2203002860712186e-03 0.0000000000000000e+00  4.5229045020284749e-02 5.3314713758295984e-01 0.0000000000000000e+00  5.0758603680585938e-03 -1.7427167288518969e-02 0.0000000000000000e+00  4.5049645916977448e-03 -1.1913074673344860e-02 0.0000000000000000e+00  1.7806414993689894e-02 -2.2168031395461660e-01 0.0000000000000000e+00  1.1302161389873297e-02 8.4125273660206723e-02 0.0000000000000000e+00  6.3943773590492215e-03 -3.3731531548813566e-02 0.0000000000000000e+00  5.2660179272102040e-03 -2.2615274110753713e-02 0.0000000000000000e+00  1.2807615791032975e-02 8.6326248369289815e-02 0.0000000000000000e+00  6.9220343673011839e-03 -3.9984845401334727e-02 0.0000000000000000e+00  6.3975856683524098e-03 9.0488855713626679e-02 0.0000000000000000e+00  1.1216305049059851e-02 7.9511587334305231e-02 0.0000000000000000e+00  7.8017872918519247e-03 -4.6937494918859651e-02 0.0000000000000000e+00  5.7946350422094116e-03 -2.7898406623685593e-02 0.0000000000000000e+00  6.4914463359660906e-03 4.6302550390293573e-02 0.0000000000000000e+00  9.1796578830648408e-03 -5.4350987855287573e-02 0.0000000000000000e+00  -4.0835710347120524e-01 1.4702718736147864e+00 0.0000000000000000e+00  -3.9869950763003215e-01 -1.2430249094301657e+00 0.0000000000000000e+00  -5.0017395150802516e-02 -1.2854028797568407e-02 0.0000000000000000e+00  5.3992689819870120e-02 -7.0138506781421051e-01 0.0000000000000000e+00  2.2869198915463063e-02 -5.6930675185027632e-02 0.000000