<?xml version="1.0"?>
<VTKFile type="UnstructuredGrid"  version="0.1"  >
<UnstructuredGrid>
<Piece  NumberOfPoints="1419" NumberOfCells="2698">
<Points>
<DataArray  type="Float64"  NumberOfComponents="3"  format="ascii">9.544253619534332e-09 -1.265455839636666e-06 0  2.446886928028326e-08 0.4099987290159113 0  2.5000000412644 -1.858849176797166e-06 0  2.500000041264412 0.4099981411508388 0  0.6000000449096172 0.1899980802204775 0  0.6000000560834172 0.2099980818021678 0  0.25 0.2 0  0.1500000165880032 0.1999987433573723 0  0.2489897948556636 0.21 0  0.2489897948556636 0.19 0  0.6000000529631001 0.1999980733982926 0  2.429868237446536e-08 0.3807130151034932 0  2.381407221937055e-08 0.3514273018331844 0  2.300030184407747e-08 0.3221415890544332 0  2.185870699289865e-08 0.2928558764422076 0  2.044758891785732e-08 0.2635701637462864 0  1.882150980103822e-08 0.2342844507990949 0  1.70466804406674e-08 0.2049987373492592 0  1.526738701079813e-08 0.1757130234388937 0  1.361214481760236e-08 0.1464273090206771 0  1.216254056045873e-08 0.1171415941890808 0  1.1031087951201e-08 0.08785587909690525 0  1.019663827289666e-08 0.05857016396822413 0  9.701764806814843e-09 0.02928444905024054 0  0.0301544469812323 -1.265703957700605e-06 0  0.06140002870023472 -1.266603123693962e-06 0  0.09377624865810759 -1.268643168830386e-06 0  0.1273240023012335 -1.272679784086063e-06 0  0.1620856909342453 -1.280250390958282e-06 0  0.198105246456019 -1.295127143158133e-06 0  0.2354281857380992 -1.322952645231726e-06 0  0.2741016585581878 -1.367363787685235e-06 0  0.3141745534546901 -1.428873175259955e-06 0  0.3556974959552983 -1.505057462904425e-06 0  0.3987229610654837 -1.586848611352646e-06 0  0.4433053171692746 -1.664811836115742e-06 0  0.4895008933112786 -1.732739293734414e-06 0  0.5373680842534905 -1.785115956903526e-06 0  0.5869673630117026 -1.820211766584096e-06 0  0.638361400706245 -1.841576195718367e-06 0  0.691615149926629 -1.852087046611335e-06 0  0.746795897604459 -1.856682755475078e-06 0  0.8039733856848703 -1.858535014011545e-06 0  0.8632198540155168 -1.859135276537104e-06 0  0.9246101732303124 -1.859226578536246e-06 0  0.9882219219183211 -1.859152281086527e-06 0  1.054135486564246 -1.859061972898895e-06 0  1.122434141652282 -1.85898664470027e-06 0  1.193204218317186 -1.858931988780516e-06 0  1.26653513109437 -1.858897088836924e-06 0  1.342519557282925 -1.8588765335141e-06 0  1.421253489753015 -1.858864352858105e-06 0  1.502836430362611 -1.858857202785015e-06 0  1.587371481019059 -1.858853350671551e-06 0  1.674965460039639 -1.858851311287473e-06 0  1.765729043088895 -1.85885022570461e-06 0  1.859776950143966 -1.858849691967384e-06 0  1.957228018751225 -1.858849412082591e-06 0  2.058205371134234 -1.858849284661139e-06 0  2.162836632454307 -1.85884921963064e-06 0  2.271253998555248 -1.85884919207411e-06 0  2.383594488067819 -1.858849180280819e-06 0  2.5000000412644 0.1024981411505866 0  2.500000041264406 0.2049981411503052 0  2.500000041264412 0.3074981411505548 0  2.383594488068073 0.4099981411508422 0  2.271253998555744 0.4099981411508543 0  2.162836632455056 0.4099981411508831 0  2.058205371135296 0.4099981411509452 0  1.957228018752713 0.4099981411510712 0  1.859776950146185 0.4099981411513649 0  1.765729043092323 0.4099981411518969 0  1.674965460045412 0.4099981411530276 0  1.587371481029036 0.4099981411550733 0  1.502836430380436 0.4099981411589703 0  1.421253489785594 0.409998141166505 0  1.34251955734053 0.4099981411793093 0  1.266535131194929 0.4099981412017094 0  1.193204218494687 0.4099981412439222 0  1.122434141959644 0.4099981413196949 0  1.054135487072788 0.4099981414465366 0  0.9882219227677458 0.4099981416981819 0  0.9246101746016915 0.4099981421610333 0  0.8632198562108653 0.4099981430488481 0  0.8039733891219843 0.409998144827586 0  0.7467959028781753 0.4099981484011519 0  0.6916151577553964 0.4099981553737135 0  0.638361411961658 0.40999816896829 0  0.5869673785910531 0.4099981923738147 0  0.537368104710706 0.4099982286324166 0  0.4895009188976083 0.4099982803926243 0  0.4433053476204742 0.4099983450931479 0  0.3987229953965691 0.4099984183716266 0  0.355697532539744 0.4099984942658561 0  0.3141745903758274 0.4099985651294522 0  0.2741016937680426 0.4099986239370303 0  0.2354282178898176 0.4099986661781487 0  0.1981052747792809 0.4099986939341397 0  0.1620857153470478 0.4099987102156274 0  0.1273240232632866 0.4099987192952359 0  0.09377626689493475 0.4099987245269837 0  0.06140004504667715 0.4099987272481044 0  0.03015446222722123 0.4099987286624983 0  0.2497468076502589 0.2050254481002335 0  0.2497468076502614 0.1949745518997913 0  0.2469965134058495 0.1829310898625557 0  0.2439893615658925 0.1762308016882274 0  0.2400332042996714 0.1700433724988838 0  0.2352133887471254 0.1645022408170924 0  0.2296338951178215 0.159726922777586 0  0.2234150928556659 0.155820430681586 0  0.2166911436309231 0.1528670355243958 0  0.2096071069364637 0.1509304489334597 0  0.2023158107519928 0.1500524460770783 0  0.1949745542056726 0.1502519680313278 0  0.1877417144043778 0.1515247082939219 0  0.180773329397681 0.1538432087633828 0  0.1742197321123015 0.1571574500756917 0  0.168222306916556 0.1613959319547244 0  0.1629104396822009 0.1664672146821522 0  0.1583987262439375 0.1722618925135134 0  0.1547845003786162 0.1786549533571991 0  0.1521457337680504 0.1855084760875242 0  0.1505393540743458 0.1926746057178567 0  0.1505393568028547 0.2073228812890529 0  0.1521457392515709 0.2144890118350606 0  0.1547845085598657 0.2213425361522706 0  0.1583987371671708 0.2277355994527852 0  0.1629104533065512 0.2335302807700748 0  0.1682223232976341 0.2386015685263687 0  0.1742197511959697 0.2428400571691542 0  0.1807733512338089 0.2461543078648099 0  0.1877417389905885 0.2484728212306689 0  0.1949745815618236 0.249745579264456 0  0.2023158408491686 0.2499451247074427 0  0.2096071398377877 0.2490671546359883 0  0.2166911792499711 0.2471306111965822 0  0.2234151311811371 0.2441772763353901 0  0.2296339360088667 0.240270866052514 0  0.2352134318651992 0.2354956637736887 0  0.2400332489238097 0.2299546941838055 0  0.2439894056857944 0.2237675211251529 0  0.2469965514506436 0.217067672378838 0  0.2564581310307139 0.2099993963492045 0  0.2639264415996971 0.2099991918171396 0  0.2713947504753578 0.2099990584748684 0  0.2788630522716654 0.2099989555623671 0  0.2863313552176635 0.2099988703153802 0  0.2937996581892185 0.2099987953723915 0  0.301267960399896 0.2099987271366899 0  0.308736261611165 0.2099986769698851 0  0.3162045674426366 0.2099986291058841 0  0.323672867760822 0.2099985847167783 0  0.3311411739580972 0.209998544547866 0  0.3386094734964921 0.2099985075770522 0  0.3460777785882766 0.2099984720041589 0  0.3535460786990215 0.2099984332173993 0  0.3610143787192871 0.2099984141653286 0  0.3684826826429456 0.2099983915592725 0  0.3759509811293663 0.2099983677315956 0  0.3834192847891099 0.2099983454555246 0  0.3908875830699262 0.2099983238097854 0  0.3983558867398655 0.2099983034380034 0  0.4058241846451729 0.2099982829192308 0  0.4132924878111207 0.2099982612192294 0  0.4207607858466874 0.2099982346640137 0  0.428229085402131 0.2099982245018186 0  0.4356973886361393 0.2099982101605068 0  0.4431656879069136 0.2099981943170417 0  0.4506339916984619 0.2099981782543643 0  0.4581022910095886 0.2099981628717303 0  0.4655705955272317 0.2099981480380923 0  0.4730388948099444 0.2099981338261635 0  0.480507200065642 0.2099981199989083 0  0.4879754999888624 0.2099981069664863 0  0.4954438063906537 0.2099980937988239 0  0.5029121064712528 0.2099980830503345 0  0.510380413279231 0.209998074135282 0  0.517848714029523 0.209998066209033 0  0.5253170225842811 0.2099980581074438 0  0.5327853236121275 0.2099980504489781 0  0.5402536323094831 0.209998044666532 0  0.547721934023813 0.2099980412456347 0  0.5551902433679285 0.2099980358340638 0  0.562658546348895 0.2099980254349282 0  0.5701268475104829 0.2099980418397841 0  0.5775951552296745 0.2099980525311077 0  0.5850634555852768 0.2099980588987288 0  0.592531759004936 0.2099980697886965 0  0.6000000572576391 0.2049980760038811 0  0.6000000468856326 0.1949980770376418 0  0.5925317418624331 0.1899980674684789 0  0.5850634424734701 0.1899980538995407 0  0.5775951361373777 0.1899980426820325 0  0.5701268358555426 0.1899980318409821 0  0.5626585302222913 0.1899980163645286 0  0.5551902230674797 0.1899980241643308 0  0.5477219226724411 0.1899980262267491 0  0.5402536138878258 0.1899980285582159 0  0.5327853137459639 0.1899980327573955 0  0.5253170041526714 0.1899980386967584 0  0.517848702661408 0.1899980460736161 0  0.5103803936111284 0.189998054571677 0  0.502912093237042 0.1899980641526771 0  0.4954437845799115 0.1899980753195084 0  0.4879754841541122 0.1899980878962098 0  0.4805071758117451 0.1899981016288325 0  0.4730388744716978 0.189998116071794 0  0.4655705666223636 0.1899981313887124 0  0.4581022662075979 0.1899981473277212 0  0.4506339593639296 0.1899981639830418 0  0.4431656588649643 0.1899981812162767 0  0.4356973519173071 0.1899981988412277 0  0.428229050385204 0.189998215712423 0  0.4207607443998904 0.1899982282483129 0  0.4132924394568897 0.1899982559203242 0  0.4058241387511337 0.189998280158222 0  0.3983558334291873 0.1899983021683 0  0.3908875321396746 0.1899983246118711 0  0.3834192265608521 0.1899983473761941 0  0.3759509249440589 0.1899983707320685 0  0.368482619500908 0.1899983949402882 0  0.3610143185804212 0.1899984177082197 0  0.3535460130830332 0.1899984380289916 0  0.3460777065748862 0.1899984769834166 0  0.3386094049971625 0.1899985139842522 0  0.3311410985261355 0.1899985513557929 0  0.3236727978541447 0.1899985915897357 0  0.3162044924620415 0.1899986356865377 0  0.3087361920713583 0.1899986826345691 0  0.3012678871064974 0.1899987322646471 0  0.2937995840415286 0.1899987996434234 0  0.2863312818974992 0.1899988740470262 0  0.2788629797528689 0.1899989588539895 0  0.2713946744775396 0.189999062137935 0  0.2639263745922343 0.1899991973898314 0  0.25645807529576 0.1899994002637436 0  0.260
[...]
<PointData  Vectors="f_30-0"> 
<DataArray  type="Float64"  Name="f_30-0"  NumberOfComponents="3" format="ascii">0.0000000000000000e+00 0.0000000000000000e+00 0.0000000000000000e+00  0.0000000000000000e+00 0.0000000000000000e+00 0.0000000000000000e+00  0.0000000000000000e+00 0.0000000000000000e+00 0.0000000000000000e+00  0.0000000000000000e+00 0.0000000000000000e+00 0.0000000000000000e+00  1.1719504215143940e-02 -6.0728872579343861e-02 0.0000000000000000e+00  2.9896456141457868e-02 -5.4604065689666269e-02 0.0000000000000000e+00  0.0000000000000000e+00 0.0000000000000000e+00 0.0000000000000000e+00  0.0000000000000000e+00 0.0000000000000000e+00 0.0000000000000000e+00  0.0000000000000000e+00 0.0000000000000000e+00 0.0000000000000000e+00  0.0000000000000000e+00 0.0000000000000000e+00 0.0000000000000000e+00  5.9295576820900170e-02 -1.4062796171759714e-01 0.0000000000000000e+00  0.0000000000000000e+00 0.0000000000000000e+00 0.0000000000000000e+00  0.0000000000000000e+00 0.0000000000000000e+00 0.0000000000000000e+00  0.0000000000000000e+00 0.0000000000000000e+00 0.0000000000000000e+00  0.0000000000000000e+00 0.0000000000000000e+00 0.0000000000000000e+00  0.0000000000000000e+00 0.0000000000000000e+00 0.0000000000000000e+00  0.0000000000000000e+00 0.0000000000000000e+00 0.0000000000000000e+00  0.0000000000000000e+00 0.0000000000000000e+00 0.0000000000000000e+00  0.0000000000000000e+00 0.0000000000000000e+00 0.0000000000000000e+00  0.0000000000000000e+00 0.0000000000000000e+00 0.0000000000000000e+00  0.0000000000000000e+00 0.0000000000000000e+00 0.0000000000000000e+00  0.0000000000000000e+00 0.0000000000000000e+00 0.0000000000000000e+00  0.0000000000000000e+00 0.0000000000000000e+00 0.0000000000000000e+00  0.0000000000000000e+00 0.0000000000000000e+00 0.0000000000000000e+00  0.0000000000000000e+00 0.0000000000000000e+00 0.0000000000000000e+00  0.0000000000000000e+00 0.0000000000000000e+00 0.0000000000000000e+00  0.0000000000000000e+00 0.0000000000000000e+00 0.0000000000000000e+00  0.0000000000000000e+00 0.0000000000000000e+00 0.0000000000000000e+00  0.0000000000000000e+00 0.0000000000000000e+00 0.0000000000000000e+00  0.0000000000000000e+00 0.0000000000000000e+00 0.0000000000000000e+00  0.0000000000000000e+00 0.0000000000000000e+00 0.0000000000000000e+00  0.0000000000000000e+00 0.0000000000000000e+00 0.0000000000000000e+00  0.0000000000000000e+00 0.0000000000000000e+00 0.0000000000000000e+00  0.0000000000000000e+00 0.0000000000000000e+00 0.0000000000000000e+00  0.0000000000000000e+00 0.0000000000000000e+00 0.0000000000000000e+00  0.0000000000000000e+00 0.0000000000000000e+00 0.0000000000000000e+00  0.0000000000000000e+00 0.0000000000000000e+00 0.0000000000000000e+00  0.0000000000000000e+00 0.0000000000000000e+00 0.0000000000000000e+00  0.0000000000000000e+00 0.0000000000000000e+00 0.0000000000000000e+00  0.0000000000000000e+00 0.0000000000000000e+00 0.0000000000000000e+00  0.0000000000000000e+00 0.0000000000000000e+00 0.0000000000000000e+00  0.0000000000000000e+00 0.0000000000000000e+00 0.0000000000000000e+00  0.0000000000000000e+00 0.0000000000000000e+00 0.0000000000000000e+00  0.0000000000000000e+00 0.0000000000000000e+00 0.0000000000000000e+00  0.0000000000000000e+00 0.0000000000000000e+00 0.0000000000000000e+00  0.0000000000000000e+00 0.0000000000000000e+00 0.0000000000000000e+00  0.0000000000000000e+00 0.0000000000000000e+00 0.0000000000000000e+00  0.0000000000000000e+00 0.0000000000000000e+00 0.0000000000000000e+00  0.0000000000000000e+00 0.0000000000000000e+00 0.0000000000000000e+00  0.0000000000000000e+00 0.0000000000000000e+00 0.0000000000000000e+00  0.0000000000000000e+00 0.0000000000000000e+00 0.0000000000000000e+00  0.0000000000000000e+00 0.0000000000000000e+00 0.0000000000000000e+00  0.0000000000000000e+00 0.0000000000000000e+00 0.0000000000000000e+00  0.0000000000000000e+00 0.0000000000000000e+00 0.0000000000000000e+00  0.0000000000000000e+00 0.0000000000000000e+00 0.0000000000000000e+00  0.0000000000000000e+00 0.0000000000000000e+00 0.0000000000000000e+00  0.0000000000000000e+00 0.0000000000000000e+00 0.0000000000000000e+00  0.0000000000000000e+00 0.0000000000000000e+00 0.0000000000000000e+00  0.0000000000000000e+00 0.0000000000000000e+00 0.0000000000000000e+00  0.0000000000000000e+00 0.0000000000000000e+00 0.0000000000000000e+00  0.0000000000000000e+00 0.0000000000000000e+00 0.0000000000000000e+00  0.0000000000000000e+00 0.0000000000000000e+00 0.0000000000000000e+00  6.1332798800056675e-09 1.9882933104907597e-09 0.0000000000000000e+00  -2.1502168161639150e-10 2.6386970574587106e-09 0.0000000000000000e+00  -6.4097292881012961e-09 2.4046130570871885e-09 0.0000000000000000e+00  0.0000000000000000e+00 0.0000000000000000e+00 0.0000000000000000e+00  0.0000000000000000e+00 0.0000000000000000e+00 0.0000000000000000e+00  0.0000000000000000e+00 0.0000000000000000e+00 0.0000000000000000e+00  0.0000000000000000e+00 0.0000000000000000e+00 0.0000000000000000e+00  0.0000000000000000e+00 0.0000000000000000e+00 0.0000000000000000e+00  0.0000000000000000e+00 0.0000000000000000e+00 0.0000000000000000e+00  0.0000000000000000e+00 0.0000000000000000e+00 0.0000000000000000e+00  0.0000000000000000e+00 0.0000000000000000e+00 0.0000000000000000e+00  0.0000000000000000e+00 0.0000000000000000e+00 0.0000000000000000e+00  0.0000000000000000e+00 0.0000000000000000e+00 0.0000000000000000e+00  0.0000000000000000e+00 0.0000000000000000e+00 0.0000000000000000e+00  0.0000000000000000e+00 0.0000000000000000e+00 0.0000000000000000e+00  0.0000000000000000e+00 0.0000000000000000e+00 0.0000000000000000e+00  0.0000000000000000e+00 0.0000000000000000e+00 0.0000000000000000e+00  0.0000000000000000e+00 0.0000000000000000e+00 0.0000000000000000e+00  0.0000000000000000e+00 0.0000000000000000e+00 0.0000000000000000e+00  0.0000000000000000e+00 0.0000000000000000e+00 0.0000000000000000e+00  0.0000000000000000e+00 0.0000000000000000e+00 0.0000000000000000e+00  0.0000000000000000e+00 0.0000000000000000e+00 0.0000000000000000e+00  0.0000000000000000e+00 0.0000000000000000e+00 0.0000000000000000e+00  0.0000000000000000e+00 0.0000000000000000e+00 0.0000000000000000e+00  0.0000000000000000e+00 0.0000000000000000e+00 0.0000000000000000e+00  0.0000000000000000e+00 0.0000000000000000e+00 0.0000000000000000e+00  0.0000000000000000e+00 0.0000000000000000e+00 0.0000000000000000e+00  0.0000000000000000e+00 0.0000000000000000e+00 0.0000000000000000e+00  0.0000000000000000e+00 0.0000000000000000e+00 0.0000000000000000e+00  0.0000000000000000e+00 0.0000000000000000e+00 0.0000000000000000e+00  0.0000000000000000e+00 0.0000000000000000e+00 0.0000000000000000e+00  0.0000000000000000e+00 0.0000000000000000e+00 0.0000000000000000e+00  0.0000000000000000e+00 0.0000000000000000e+00 0.0000000000000000e+00  0.0000000000000000e+00 0.0000000000000000e+00 0.0000000000000000e+00  0.0000000000000000e+00 0.0000000000000000e+00 0.0000000000000000e+00  0.0000000000000000e+00 0.0000000000000000e+00 0.0000000000000000e+00  0.0000000000000000e+00 0.0000000000000000e+00 0.0000000000000000e+00  0.0000000000000000e+00 0.0000000000000000e+00 0.0000000000000000e+00  0.0000000000000000e+00 0.0000000000000000e+00 0.0000000000000000e+00  0.0000000000000000e+00 0.0000000000000000e+00 0.0000000000000000e+00  0.0000000000000000e+00 0.0000000000000000e+00 0.0000000000000000e+00  0.0000000000000000e+00 0.0000000000000000e+00 0.0000000000000000e+00  0.0000000000000000e+00 0.0000000000000000e+00 0.0000000000000000e+00  0.0000000000000000e+00 0.0000000000000000e+00 0.0000000000000000e+00  0.0000000000000000e+00 0.0000000000000000e+00 0.0000000000000000e+00  0.0000000000000000e+00 0.0000000000000000e+00 0.0000000000000000e+00  0.0000000000000000e+00 0.0000000000000000e+00 0.0000000000000000e+00  0.0000000000000000e+00 0.0000000000000000e+00 0.0000000000000000e+00  0.0000000000000000e+00 0.0000000000000000e+00 0.0000000000000000e+00  0.0000000000000000e+00 0.0000000000000000e+00 0.0000000000000000e+00  0.0000000000000000e+00 0.0000000000000000e+00 0.0000000000000000e+00  0.0000000000000000e+00 0.0000000000000000e+00 0.0000000000000000e+00  0.0000000000000000e+00 0.0000000000000000e+00 0.0000000000000000e+00  0.0000000000000000e+00 0.0000000000000000e+00 0.0000000000000000e+00  0.0000000000000000e+00 0.0000000000000000e+00 0.0000000000000000e+00  0.0000000000000000e+00 0.0000000000000000e+00 0.0000000000000000e+00  0.0000000000000000e+00 0.0000000000000000e+00 0.0000000000000000e+00  0.0000000000000000e+00 0.0000000000000000e+00 0.0000000000000000e+00  0.0000000000000000e+00 0.0000000000000000e+00 0.0000000000000000e+00  0.0000000000000000e+00 0.0000000000000000e+00 0.0000000000000000e+00  0.0000000000000000e+00 0.0000000000000000e+00 0.0000000000000000e+00  0.0000000000000000e+00 0.0000000000000000e+00 0.0000000000000000e+00  0.0000000000000000e+00 0.0000000000000000e+00 0.0000000000000000e+00  0.0000000000000000e+00 0.0000000000000000e+00 0.0000000000000000e+00  0.0000000000000000e+00 0.0000000000000000e+00 0.0000000000000000e+00  0.0000000000000000e+00 0.0000000000000000e+00 0.0000000000000000e+00  0.0000000000000000e+00 0.0000000000000000e+00 0.0000000000000000e+00  0.0000000000000000e+00 0.0000000000000000e+00 0.0000000000000000e+00  0.0000000000000000e+00 0.0000000000000000e+00 0.0000000000000000e+00  0.0000000000000000e+00 0.0000000000000000e+00 0.0000000000000000e+00  0.0000000000000000e+00 0.0000000000000000e+00 0.0000000000000000e+00  0.0000000000000000e+00 0.0000000000000000e+00 0.0000000000000000e+00  0.0000000000000000e+00 0.0000000000000000e+00 0.0000000000000000e+00  0.0000000000000000e+00 0.0000000000000000e+00 0.0000000000000000e+00  0.0000000000000000e+00 0.0000000000000000e+00 0.0000000000000000e+00  0.0000000000000000e+00 0.0000000000000000e+00 0.0000000000000000e+00  0.0000000000000000e+00 0.0000000000000000e+00 0.0000000000000000e+00  0.0000000000000000e+00 0.0000000000000000e+00 0.0000000000000000e+00  0.0000000000000000e+00 0.0000000000000000e+00 0.0000000000000000e+00  0.0000000000000000e+00 0.0000000000000000e+00 0.0000000000000000e+00  0.0000000000000000e+00 0.0000000000000000e+00 0.0000000000000000e+00  9.5745111720386245e-02 3.0852468988688675e-01 0.0000000000000000e+00  7.6378688839770337e-02 2.4900930810418515e-01 0.0000000000000000e+00  8.1607338000286120e-02 1.5573787773569495e-01 0.0000000000000000e+00  3.8486092446619789e-02 4.6407016499052982e-02 0.0000000000000000e+00  3.3375844298741936e-02 -5.8592118988927125e-03 0.0000000000000000e+00  2.4516822587002302e-02 -8.7743127063600129e-02 0.0000000000000000e+00  3.2368827307649263e-02 -1.2988935583973757e-01 0.0000000000000000e+00  -8.0925682807779405e-03 -1.6071596608042507e-01 0.0000000000000000e+00  3.7307326402627433e-02 -1.6883532354480968e-01 0.0000000000000000e+00  -8.6036137153323779e-03 -1.8440857625971585e-01 0.0000000000000000e+00  3.8908221693270933e-02 -2.0000436340103159e-01 0.0000000000000000e+00  -7.1410042782600091e-03 -2.0171071548435127e-01 0.0000000000000000e+00  4.7278730500731649e-02 -2.2080310113081514e-01 0.0000000000000000e+00  6.9614971145067709e-03 -2.1927283457157495e-01 0.0000000000000000e+00  1.4797695333534377e-03 -2.0481633587967618e-01 0.0000000000000000e+00  2.1459446290794056e-02 -1.7998270457770535e-01 0.0000000000000000e+00  -3.0098876585363927e-03 -1.9229559962502393e-01 0.0000000000000000e+00  2.0664060030698792e-02 -1.7881152288175112e-01 0.0000000000000000e+00  -9.5510342656576833e-03 -1.8219497697010095e-01 0.0000000000000000e+00  2.3681518853883483e-02 -1.8342399813747301e-01 0.0000000000000000e+00  -1.9335118863513707e-02 -1.8368683548921425e-01 0.0000000000000000e+00  3.1946029038942537e-02 -1.9164439687223742e-01 0.0000000000000000e+00  -1.3668791570621690e-02 -1.9439084878378632e-01 0.0000000000000000e+00  -2.3272219390613150e-02 -1.9705297519759590e-01 0.0000000000000000e+00  4.9067462737810983e-04 -2.0932500567161769e-01 0.0000000000000000e+00  -1.9804656218522572e-02 -2.1187258837644268e-01 0.0000000000000000e+00  -2.0205229767775081e-03 -2.2679520787621246e-01 0.0000000000000000e+00  -3.3279272703111380e-02 -2.3930513306509618e-01 0.0000000000000000e+00  1.2177687216392412e-02 -2.4377820794789962e-01 0.0000000000000000e+00  -4.5307954373049977e-02 -2.4911368819330595e-01 0.0000000000000000e+00  1.5371970119329392e-02 -2.6455133463410657e-01 0.0000000000000000e+00  -4.2055248123894710e-02 -2.6061905661103574e-01 0.0000000000000000e+00  1.0404838898181919e-02 -3.0835486151140884e-01 0.0000000000000000e+00  -3.5892731032567252e-02 -3.0929487286405455e-01 0.0000000000000000e+00  1.7957579609765420e-02 -2.8682521666289285e-01 0.0000000000000000e+00  -4.0204218769351777e-02 -2.7318234385297280e-01 0.0000000000000000e+00  2.5882848323982091e-02 -2.8379000576041685e-01 0.0000000000000000e+00  -4.2264543310068910e-02 -3.1309254522757313e-01 0.0000000000000000e+00  3.9893602598169833e-02 -3.2182573106826962e-01 0.0000000000000000e+00  -2.4341585718115878e-02 -2.9201647455046958e-01 0.0000000000000000e+00  4.6703260136372091e-02 -2.8923938716692582e-01 0.0000000000000000e+00  1.8424732752084505e-02 -2.7856878685273401e-01 0.0000000000000000e+00  -1.0136480385369885e-02 -2.4822590590313343e-01 0.0000000000000000e+00  5.7249447573552173e-02 -1.9562965751483824e-01 0.0000000000000000e+00  1.9460946338302927e-02 -2.3770566164848722e-01 0.0000000000000000e+00  1.0259032426919724e-01 -1.9947997541156035e-01 0.0000000000000000e+00  1.0082523561962241e-01 -1.4751184207510964e-01 0.0000000000000000e+00  -1.5050280235984714e-02 -1.1298944075728880e-01 0.0000000000000000e+00  2.8293360747201598e-03 -1.3767008720658461e-01 0.0000000000000000e+00  5.8847131105060839e-02 -1.9040490003298757e-01 0.0000000000000000e+00  4.1266632599687306e-03 -2.1068093728687087e-01 0.0000000000000000e+00  5.4833645083619618e-02 -2.5449786162193377e-01 0.0000000000000000e+00  2.3071739024078230e-02 -2.4940540920920623e-01 0.0000000000000000e+00  -2.3574203888090117e-02 -2.7595946259784182e-01 0.0000000000000000e+00  5.2217384879721974e-02 -2.6704283218257191e-01 0.0000000000000000e+00  -2.8632159551791006e-02 -2.7559662908761212e-01 0.0000000000000000e+00  4.4910749034548954e-02 -2.8038725649060947e-01 0.0000000000000000e+00  -3.3216036793293359e-02 -2.7987458675961024e-01 0.0000000000000000e+00  3.6394474271056847e-02 -2.7291079937008883e-01 0.0000000000000000e+00  -3.4689679585691989e-02 -2.6818177698351625e-01 0.0000000000000000e+00  3.4382019834954293e-02 -2.6036998058843414e-01 0.0000000000000000e+00  -3.9404052808082381e-02 -2.5575985946531965e-01 0.0000000000000000e+00  2.6308499763773814e-02 -2.4955223775132596e-01 0.0000000000000000e+00  -3.8320318753523951e-02 -2.4349239065183925e-01 0.0000000000000000e+00  2.2154117362165167e-02 -2.3385591927052643e-01 0.0000000000000000e+00  -3.7955371342943134e-02 -2.2449330746508223e-01 0.0000000000000000e+00  1.9837419481785884e-02 -2.1149683239671288e-01 0.0000000000000000e+00  -3.5557286939212111e-02 -2.0547488429824270e-01 0.0000000000000000e+00  1.9025810698510573e-02 -2.0147323227056407e-01 0.0000000000000000e+00  -3.1793877116498621e-02 -1.9479337587517220e-01 0.0000000000000000e+00  1.9594551872358500e-02 -1.9878187841530712e-01 0.0000000000000000e+00  -1.2008159401183686e-02 -1.9078887694049224e-01 0.0000000000000000e+00  -2.7879446607551754e-02 -1.9258702964103119e-01 0.0000000000000000e+00  5.0813917445387208e-03 -1.7842108169580648e-01 0.0000000000000000e+00  -2.3846939368832167e-02 -1.8780641115916619e-01 0.0000000000000000e+00  8.6133315791042057e-03 -1.9270713639694181e-01 0.0000000000000000e+00  -2.2332709021057849e-02 -1.9549346189815778e-01 0.0000000000000000e+00  8.3476680357141581e-03 -1.9712732388200405e-01 0.0000000000000000e+00  -2.0294724312011389e-02 -1.9264170799463226e-01 0.0000000000000000e+00  1.1770854200273649e-02 -2.0461138204230217e-01 0.0000000000000000e+00  -1.2603083325741034e-03 -2.0882236850238214e-01 0.0000000000000000e+00  -4.6854573661267822e-02 -2.1994937650080573e-01 0.0000000000000000e+00  8.4254825414693986e-03 -2.0305230128101917e-01 0.0000000000000000e+00  -5.0303853843023889e-02 -2.0193059703534616e-01 0.0000000000000000e+00  3.0886314768334062e-03 -1.8898488531436328e-01 0.0000000000000000e+00  -5.0766400831489443e-02 -1.7361011541046845e-01 0.0000000000000000e+00  -6.9721565715223925e-04 -1.5794204187181737e-01 0.0000000000000000e+00  -3.9351184274295875e-02 -1.2798226419580372e-01 0.0000000000000000e+00  -3.5166218021940539e-02 -9.0227068524105308e-02 0.0000000000000000e+00  -3.6804074743508421e-02 -1.5375426968769881e-02 0.0000000000000000e+00  -2.9105361474088411e-02 3.3170215902179501e-02 0.0000000000000000e+00  -7.1340609148221504e-02 1.4895829653250062e-01 0.0000000000000000e+00  -9.4028607850857454e-02 2.7591108725129154e-01 0.0000000000000000e+00  -1.1703034717476775e-01 3.1701119859057453e-01 0.0000000000000000e+00  -6.0733747679095748e-03 -1.5378689599729364e-01 0.0000000000000000e+00  -8.8089093640954016e-03 1.2579077454790094e-01 0.0000000000000000e+00  2.3434123708182991e-04 1.7626287050775660e-01 0.0000000000000000e+00  9.0246604324890362e-03 2.2514855668736827e-01 0.0000000000000000e+00  -9.2395439234075269e-03 -7.8512066915268006e-02 0.0000000000000000e+00  1.8208191068394702e-03 2.3357188734266493e-01 0.0000000000000000e+00  4.1177286579316885e-03 2.6976973241648904e-02 0.0000000000000000e+00  1.4744531500113201e-03 2.2436203878565436e-01 0.0000000000000000e+00  4.4590743329129398e-03 1.3233041779403448e-01 0.0000000000000000e+00  6.5605865865372406e-04 1.5392610019741013e-01 0.0000000000000000e+00  -6.1509926217038630e-03 2.2207974130305042e-01 0.0000000000000000e+00  4.5871692562747448e-03 1.5794664588928084e-01 0.0000000000000000e+00  -2.3584070846790358e-03 1.9503444175031803e-01 0.0000000000000000e+00  -3.5230681188840956e-03 1.5795384601989182e-01 0.0000000000000000e+00  5.2557042327630869e-04 1.5181954852322188e-01 0.0000000000000000e+00  -2.7372307681568561e-03 1.8251181964794669e-01 0.0000000000000000e+00  2.3445023810796523e-03 2.1201113503647656e-01 0.0000000000000000e+00  -2.8521092187373497e-03 1.4928900508030218e-01 0.0000000000000000e+00  -7.0615235943518478e-04 1.6858110705354104e-01 0.0000000000000000e+00  -1.0676170815637673e-03 1.4644368618382897e-01 0.0000000000000000e+00  -5.5270539626995647e-03 1.5729313248188931e-01 0.0000000000000000e+00  2.5734792203731009e-03 1.2538242763487015e-01 0.0000000000000000e+00  -1.2550220495248664e-03 1.3455956995591828e-01 0.0000000000000000e+00  -4.1424514159794984e-03 1.8111863978766321e-01 0.0000000000000000e+00  3.4089027817156476e-03 8.3954588761097682e-02 0.0000000000000000e+00  1.0305270027035915e-02 1.2965851301743653e-01 0.0000000000000000e+00  -4.0085038752092399e-02 -1.2505117062296234e-01 0.0000000000000000e+00  -3.5403665228501816e-03 1.5787555977776313e-01 0.0000000000000000e+00  -7.3792458342234633e-03 1.6637049403642967e-01 0.0000000000000000e+00  2.8969763949389823e-02 -1.5854418972576230e-03 0.0000000000000000e+00  6.8894231847706363e-04 1.0356184079382770e-01 0.0000000000000000e+00  -3.7508732841745815e-03 1.3913640385389098e-01 0.0000000000000000e+00  -1.9906032114937636e-04 1.5155256607511111e-01 0.0000000000000000e+00  -8.5570285165289250e-03 1.0921968821716636e-01 0.0000000000000000e+00  2.7933206082772917e-04 1.2806486480314774e-01 0.0000000000000000e+00  2.7368768331013016e-03 1.0879676046644847e-01 0.0000000000000000e+00  -2.5058916793451865e-03 1.0759723503715592e-01 0.0000000000000000e+00  -1.3680043705940801e-03 1.2423878211019744e-01 0.0000000000000000e+00  -2.2249900011295097e-03 1.5828869387515196e-01 0.0000000000000000e+00  2.9514528705971575e-03 1.1584732319213442e-01 0.0000000000000000e+00  1.7095026119739055e-03 1.0958447191620906e-01 0.0000000000000000e+00  -3.2164190722732286e-02 -1.6672501090920097e-01 0.0000000000000000e+00  3.8925496272020424e-02 -1.5769803339932187e-01 0.0000000000000000e+00  -6.6997820133192457e-02 9.1529452308476006e-02 0.0000000000000000e+00  2.5779303367287898e-02 -1.2636520515874994e-01 0.000