<?xml version="1.0"?>
<VTKFile type="UnstructuredGrid"  version="0.1"  >
<UnstructuredGrid>
<Piece  NumberOfPoints="1419" NumberOfCells="2698">
<Points>
<DataArray  type="Float64"  NumberOfComponents="3"  format="ascii">-1.77317988271896e-09 -4.591674045669509e-07 0  3.451640247760615e-09 0.4099995390083557 0  2.50000000240127 -6.710873299452981e-07 0  2.500000002401273 0.4099993289126763 0  0.6000000020721177 0.1899993031719297 0  0.6000000042588253 0.2099993047074008 0  0.25 0.2 0  0.1500000007568123 0.1999995439356728 0  0.2489897948556636 0.21 0  0.2489897948556636 0.19 0  0.6000000035790327 0.1999993002174446 0  3.393921963105077e-09 0.3807138248510978 0  3.229266591760396e-09 0.3514281109146123 0  2.951516457411341e-09 0.3221423971466287 0  2.559109282846574e-09 0.2928566834344197 0  2.071087683287496e-09 0.263570969691536 0  1.505705939946648e-09 0.2342852558601578 0  8.849035558896295e-10 0.2049995418534703 0  2.599228693463558e-10 0.1757138276868242 0  -3.240760957261998e-10 0.1464281133447108 0  -8.377527416018489e-10 0.1171423988604154 0  -1.24061046150732e-09 0.08785668428765446 0  -1.538961962676983e-09 0.05857096970412422 0  -1.716558656095754e-09 0.0292852551958259 0  0.03015443577094116 -4.592545560416869e-07 0  0.06140001783671448 -4.595699758268836e-07 0  0.09377623839797186 -4.602837597919595e-07 0  0.1273239928881041 -4.616925247823025e-07 0  0.1620856825509617 -4.643284730951493e-07 0  0.198105239144 -4.694959017261554e-07 0  0.2354281792448525 -4.791399913563681e-07 0  0.2741016522967751 -4.94504521088795e-07 0  0.3141745466041754 -5.157681457862019e-07 0  0.3556974873188761 -5.421594997795001e-07 0  0.3987229495637685 -5.706809807782264e-07 0  0.4433053018017182 -5.982837210781948e-07 0  0.4895008733941146 -6.228667885921454e-07 0  0.5373680596126399 -6.42358070890907e-07 0  0.5869673340686592 -6.558085068436958e-07 0  0.6383613682763188 -6.641781394868975e-07 0  0.6916151150752969 -6.683658394653846e-07 0  0.7467958612077864 -6.702112448119365e-07 0  0.8039733483129433 -6.709582456433457e-07 0  0.8632198160509578 -6.712010238136576e-07 0  0.9246101349035102 -6.712384352200932e-07 0  0.9882218833808351 -6.712088629692018e-07 0  1.054135447892086 -6.711727130610426e-07 0  1.122434102903183 -6.711425019319269e-07 0  1.193204179519215 -6.711205710591976e-07 0  1.266535092267695 -6.71106563759378e-07 0  1.342519518440292 -6.710983124508606e-07 0  1.421253450901148 -6.710934225997347e-07 0  1.502836391505403 -6.710905521413751e-07 0  1.587371442158999 -6.710890056449271e-07 0  1.674965421178077 -6.710881868892772e-07 0  1.765729004226535 -6.710877510560022e-07 0  1.859776911281215 -6.710875367737432e-07 0  1.957227979888269 -6.71087424406788e-07 0  2.058205332271184 -6.710873732501208e-07 0  2.162836593591208 -6.710873471419222e-07 0  2.271253959692129 -6.710873360786291e-07 0  2.383594449204693 -6.710873313439022e-07 0  2.50000000240127 0.1024993289124321 0  2.50000000240127 0.2049993289121474 0  2.500000002401273 0.3074993289123937 0  2.383594449204929 0.4099993289126777 0  2.271253959692591 0.4099993289126825 0  2.162836593591883 0.4099993289126941 0  2.058205332272077 0.409999328912719 0  1.957227979889401 0.4099993289127696 0  1.859776911282658 0.4099993289128875 0  1.765729004228407 0.409999328913101 0  1.674965421180669 0.4099993289135551 0  1.5873714421628 0.4099993289143763 0  1.502836391511369 0.409999328915941 0  1.421253450911101 0.4099993289189661 0  1.342519518456951 0.4099993289241071 0  1.266535092295811 0.4099993289331013 0  1.193204179567797 0.4099993289500526 0  1.122434102986266 0.4099993289804841 0  1.054135448028593 0.4099993290314323 0  0.9882218836078254 0.4099993291325243 0  0.9246101352692654 0.4099993293184634 0  0.863219816635487 0.4099993296749795 0  0.803973349229144 0.4099993303883616 0  0.7467958626210157 0.409999331818243 0  0.6916151172007631 0.4099993345947841 0  0.6383613714122961 0.409999339955409 0  0.586967338563896 0.4099993490416438 0  0.53736806577742 0.4099993628357346 0  0.4895008814474646 0.4099993820138871 0  0.4433053117171461 0.4099994053909939 0  0.3987229610193722 0.4099994313371125 0  0.3556974997386668 0.4099994578340082 0  0.3141745592798903 0.4099994823852012 0  0.2741016644832345 0.4099995027079832 0  0.2354281904208618 0.4099995173023302 0  0.1981052490163523 0.4099995268943386 0  0.162085691076251 0.4099995325208123 0  0.1273240002168259 0.4099995356566363 0  0.09377624477863568 0.4099995374618868 0  0.06140002355762957 0.4099995383996702 0  0.0301544411081303 0.409999538886736 0  0.2497468076502589 0.2050254481002335 0  0.2497468076502614 0.1949745518997913 0  0.2469965188485602 0.182931479134269 0  0.2439893661758288 0.1762313305897374 0  0.2400332073465301 0.1700439837318262 0  0.2352133901562717 0.1645029042725657 0  0.2296338949627895 0.1597276234869844 0  0.2234150912478251 0.1558211581239723 0  0.2166911406837782 0.1528677823878858 0  0.2096071027687564 0.1509312098018431 0  0.202315805405563 0.1500532177476382 0  0.1949745477732836 0.1502527474319004 0  0.1877417069192835 0.1515254935540974 0  0.1807733209195583 0.1538439982570424 0  0.1742197226543654 0.1571582427823573 0  0.1682222965220394 0.1613967269879825 0  0.1629104283495221 0.1664680114979126 0  0.1583987140036187 0.172262690628947 0  0.1547844872251326 0.178655752455731 0  0.1521457197247066 0.1855092758854107 0  0.150539339125795 0.1926754060111212 0  0.1505393400868273 0.2073236819616766 0  0.1521457216561423 0.2144898124050723 0  0.1547844901072133 0.2213433363854361 0  0.158398717852395 0.2277363990648747 0  0.1629104331514136 0.2335310794058569 0  0.1682223022979044 0.2386023656615819 0  0.174219729386462 0.2428408522156966 0  0.180773328626459 0.2461550999998994 0  0.1877417156040669 0.248473609183849 0  0.194974557444734 0.2497463614839633 0  0.2023158160558645 0.2499458993393706 0  0.2096071144228344 0.2490679187028469 0  0.2166911533161792 0.2471313611651325 0  0.2234151048588433 0.2441780065036884 0  0.2296339094965124 0.2402715698225088 0  0.2352134054908252 0.2354963298147545 0  0.2400332232056296 0.2299553078116054 0  0.2439893818055735 0.2237680527191644 0  0.2469965322242466 0.2170680637226647 0  0.2564581068092877 0.2099997745873371 0  0.2639264114881728 0.2099996968772075 0  0.2713947149165946 0.2099996466790323 0  0.2788630180746604 0.2099996092770888 0  0.2863313202330255 0.2099995793181045 0  0.2937996235463731 0.2099995536221498 0  0.3012679254223538 0.209999530091446 0  0.3087362265762283 0.2099995151236525 0  0.3162045297636998 0.2099995004681221 0  0.323672830690335 0.2099994868114031 0  0.3311411337755575 0.2099994746223209 0  0.3386094345324758 0.209999463412116 0  0.3460777371207885 0.209999452692498 0  0.3535460381761122 0.2099994410705699 0  0.3610143394240906 0.2099994346225647 0  0.3684826419048735 0.2099994271472775 0  0.3759509429216243 0.2099994194635346 0  0.3834192454836762 0.2099994121300017 0  0.3908875465467677 0.2099994050495672 0  0.3983558491720578 0.2099993983461302 0  0.4058241501895392 0.2099993915959415 0  0.4132924526673626 0.2099993845651596 0  0.4207607537867096 0.2099993762788377 0  0.428229055203646 0.2099993720991688 0  0.4356973576422843 0.209999366863261 0  0.4431656589652218 0.2099993611555662 0  0.4506339614895947 0.2099993554039824 0  0.4581022627127334 0.209999349731273 0  0.4655705653077054 0.2099993441341713 0  0.4730388664034658 0.2099993386261741 0  0.4805071690905692 0.2099993331903316 0  0.4879754701894969 0.2099993278003463 0  0.4954437729697621 0.2099993225377805 0  0.5029120738155536 0.209999317583081 0  0.5103803766691426 0.2099993128208578 0  0.5178486776640879 0.2099993083871356 0  0.5253169811894479 0.2099993040113423 0  0.5327852819903581 0.2099992998555159 0  0.540253585364325 0.2099992961836791 0  0.5477218861907061 0.2099992931165324 0  0.5551901899744955 0.2099992891556101 0  0.5626584912005478 0.2099992832940855 0  0.5701267926928718 0.2099992884674234 0  0.5775950974198055 0.2099992917316281 0  0.5850633988271432 0.209999294712536 0  0.5925317024929938 0.2099992998391876 0  0.6000000049654258 0.2049993019665757 0  0.6000000018516379 0.194999301856336 0  0.5925316998186133 0.1899992968181559 0  0.5850633991578766 0.1899992910004849 0  0.5775950954917677 0.1899992871085575 0  0.5701267949393949 0.1899992838003029 0  0.5626584916772355 0.1899992787383601 0  0.5551901879263186 0.1899992839519937 0  0.5477218869130424 0.1899992868015282 0  0.5402535826874018 0.1899992895436166 0  0.5327852816954528 0.1899992928225497 0  0.5253169773716221 0.1899992966525088 0  0.5178486757993678 0.1899993009666303 0  0.5103803716818105 0.1899993056425453 0  0.5029120702806944 0.1899993106091176 0  0.4954437663716691 0.1899993157930888 0  0.4879754648427703 0.1899993211605482 0  0.4805071610132494 0.1899993267067042 0  0.4730388591535682 0.1899993324078022 0  0.4655705554484479 0.189999338287192 0  0.4581022537516383 0.1899993442860812 0  0.4506339502489418 0.1899993503591861 0  0.4431656484801608 0.1899993565194278 0  0.4356973449357271 0.1899993627429641 0  0.4282290428698537 0.1899993687375145 0  0.4207607395586351 0.189999373528524 0  0.4132924365031648 0.1899993823399883 0  0.4058241346175064 0.1899993901469391 0  0.3983558314680816 0.1899993973476351 0  0.3908875294757033 0.1899994046740409 0  0.38341922628052 0.1899994121396335 0  0.3759509242142995 0.1899994197978581 0  0.3684826210239062 0.189999427743274 0  0.3610143191216995 0.1899994352093014 0  0.353546015903232 0.1899994418726828 0  0.3460777124482939 0.1899994537926961 0  0.3386094105569088 0.1899994651060438 0  0.331141107032293 0.189999476504401 0  0.3236728054644517 0.1899994888223948 0  0.3162045020222509 0.1899995024221053 0  0.3087362005306131 0.1899995168029749 0  0.3012678969530894 0.1899995316546695 0  0.2937995941111493 0.1899995549725647 0  0.28633129278149 0.1899995807087559 0  0.2788629903680703 0.1899996105985185 0  0.271394688908402 0.1899996476904612 0  0.2639263878071589 0.1899996979022041 0  0.2564580877924698 0.189999775537255 0  
[...]
<PointData  Vectors="f_30-0"> 
<DataArray  type="Float64"  Name="f_30-0"  NumberOfComponents="3" format="ascii">0.0000000000000000e+00 0.0000000000000000e+00 0.0000000000000000e+00  0.0000000000000000e+00 0.0000000000000000e+00 0.0000000000000000e+00  0.0000000000000000e+00 0.0000000000000000e+00 0.0000000000000000e+00  0.0000000000000000e+00 0.0000000000000000e+00 0.0000000000000000e+00  6.6923996839415830e-03 -2.2878874938118347e-02 0.0000000000000000e+00  -1.6013997114471678e-03 -1.9990100719898308e-02 0.0000000000000000e+00  0.0000000000000000e+00 0.0000000000000000e+00 0.0000000000000000e+00  0.0000000000000000e+00 0.0000000000000000e+00 0.0000000000000000e+00  0.0000000000000000e+00 0.0000000000000000e+00 0.0000000000000000e+00  0.0000000000000000e+00 0.0000000000000000e+00 0.0000000000000000e+00  1.2349478234274985e-02 -6.6002258386559487e-02 0.0000000000000000e+00  0.0000000000000000e+00 0.0000000000000000e+00 0.0000000000000000e+00  0.0000000000000000e+00 0.0000000000000000e+00 0.0000000000000000e+00  0.0000000000000000e+00 0.0000000000000000e+00 0.0000000000000000e+00  0.0000000000000000e+00 0.0000000000000000e+00 0.0000000000000000e+00  0.0000000000000000e+00 0.0000000000000000e+00 0.0000000000000000e+00  0.0000000000000000e+00 0.0000000000000000e+00 0.0000000000000000e+00  0.0000000000000000e+00 0.0000000000000000e+00 0.0000000000000000e+00  0.0000000000000000e+00 0.0000000000000000e+00 0.0000000000000000e+00  0.0000000000000000e+00 0.0000000000000000e+00 0.0000000000000000e+00  0.0000000000000000e+00 0.0000000000000000e+00 0.0000000000000000e+00  0.0000000000000000e+00 0.0000000000000000e+00 0.0000000000000000e+00  0.0000000000000000e+00 0.0000000000000000e+00 0.0000000000000000e+00  0.0000000000000000e+00 0.0000000000000000e+00 0.0000000000000000e+00  0.0000000000000000e+00 0.0000000000000000e+00 0.0000000000000000e+00  0.0000000000000000e+00 0.0000000000000000e+00 0.0000000000000000e+00  0.0000000000000000e+00 0.0000000000000000e+00 0.0000000000000000e+00  0.0000000000000000e+00 0.0000000000000000e+00 0.0000000000000000e+00  0.0000000000000000e+00 0.0000000000000000e+00 0.0000000000000000e+00  0.0000000000000000e+00 0.0000000000000000e+00 0.0000000000000000e+00  0.0000000000000000e+00 0.0000000000000000e+00 0.0000000000000000e+00  0.0000000000000000e+00 0.0000000000000000e+00 0.0000000000000000e+00  0.0000000000000000e+00 0.0000000000000000e+00 0.0000000000000000e+00  0.0000000000000000e+00 0.0000000000000000e+00 0.0000000000000000e+00  0.0000000000000000e+00 0.0000000000000000e+00 0.0000000000000000e+00  0.0000000000000000e+00 0.0000000000000000e+00 0.0000000000000000e+00  0.0000000000000000e+00 0.0000000000000000e+00 0.0000000000000000e+00  0.0000000000000000e+00 0.0000000000000000e+00 0.0000000000000000e+00  0.0000000000000000e+00 0.0000000000000000e+00 0.0000000000000000e+00  0.0000000000000000e+00 0.0000000000000000e+00 0.0000000000000000e+00  0.0000000000000000e+00 0.0000000000000000e+00 0.0000000000000000e+00  0.0000000000000000e+00 0.0000000000000000e+00 0.0000000000000000e+00  0.0000000000000000e+00 0.0000000000000000e+00 0.0000000000000000e+00  0.0000000000000000e+00 0.0000000000000000e+00 0.0000000000000000e+00  0.0000000000000000e+00 0.0000000000000000e+00 0.0000000000000000e+00  0.0000000000000000e+00 0.0000000000000000e+00 0.0000000000000000e+00  0.0000000000000000e+00 0.0000000000000000e+00 0.0000000000000000e+00  0.0000000000000000e+00 0.0000000000000000e+00 0.0000000000000000e+00  0.0000000000000000e+00 0.0000000000000000e+00 0.0000000000000000e+00  0.0000000000000000e+00 0.0000000000000000e+00 0.0000000000000000e+00  0.0000000000000000e+00 0.0000000000000000e+00 0.0000000000000000e+00  0.0000000000000000e+00 0.0000000000000000e+00 0.0000000000000000e+00  0.0000000000000000e+00 0.0000000000000000e+00 0.0000000000000000e+00  0.0000000000000000e+00 0.0000000000000000e+00 0.0000000000000000e+00  0.0000000000000000e+00 0.0000000000000000e+00 0.0000000000000000e+00  0.0000000000000000e+00 0.0000000000000000e+00 0.0000000000000000e+00  0.0000000000000000e+00 0.0000000000000000e+00 0.0000000000000000e+00  0.0000000000000000e+00 0.0000000000000000e+00 0.0000000000000000e+00  0.0000000000000000e+00 0.0000000000000000e+00 0.0000000000000000e+00  0.0000000000000000e+00 0.0000000000000000e+00 0.0000000000000000e+00  0.0000000000000000e+00 0.0000000000000000e+00 0.0000000000000000e+00  0.0000000000000000e+00 0.0000000000000000e+00 0.0000000000000000e+00  2.4893208402144005e-09 1.0082352044035933e-09 0.0000000000000000e+00  -8.6414838261018009e-11 1.2626203645805065e-09 0.0000000000000000e+00  -2.9299179837065395e-09 1.1346097942946272e-09 0.0000000000000000e+00  0.0000000000000000e+00 0.0000000000000000e+00 0.0000000000000000e+00  0.0000000000000000e+00 0.0000000000000000e+00 0.0000000000000000e+00  0.0000000000000000e+00 0.0000000000000000e+00 0.0000000000000000e+00  0.0000000000000000e+00 0.0000000000000000e+00 0.0000000000000000e+00  0.0000000000000000e+00 0.0000000000000000e+00 0.0000000000000000e+00  0.0000000000000000e+00 0.0000000000000000e+00 0.0000000000000000e+00  0.0000000000000000e+00 0.0000000000000000e+00 0.0000000000000000e+00  0.0000000000000000e+00 0.0000000000000000e+00 0.0000000000000000e+00  0.0000000000000000e+00 0.0000000000000000e+00 0.0000000000000000e+00  0.0000000000000000e+00 0.0000000000000000e+00 0.0000000000000000e+00  0.0000000000000000e+00 0.0000000000000000e+00 0.0000000000000000e+00  0.0000000000000000e+00 0.0000000000000000e+00 0.0000000000000000e+00  0.0000000000000000e+00 0.0000000000000000e+00 0.0000000000000000e+00  0.0000000000000000e+00 0.0000000000000000e+00 0.0000000000000000e+00  0.0000000000000000e+00 0.0000000000000000e+00 0.0000000000000000e+00  0.0000000000000000e+00 0.0000000000000000e+00 0.0000000000000000e+00  0.0000000000000000e+00 0.0000000000000000e+00 0.0000000000000000e+00  0.0000000000000000e+00 0.0000000000000000e+00 0.0000000000000000e+00  0.0000000000000000e+00 0.0000000000000000e+00 0.0000000000000000e+00  0.0000000000000000e+00 0.0000000000000000e+00 0.0000000000000000e+00  0.0000000000000000e+00 0.0000000000000000e+00 0.0000000000000000e+00  0.0000000000000000e+00 0.0000000000000000e+00 0.0000000000000000e+00  0.0000000000000000e+00 0.0000000000000000e+00 0.0000000000000000e+00  0.0000000000000000e+00 0.0000000000000000e+00 0.0000000000000000e+00  0.0000000000000000e+00 0.0000000000000000e+00 0.0000000000000000e+00  0.0000000000000000e+00 0.0000000000000000e+00 0.0000000000000000e+00  0.0000000000000000e+00 0.0000000000000000e+00 0.0000000000000000e+00  0.0000000000000000e+00 0.0000000000000000e+00 0.0000000000000000e+00  0.0000000000000000e+00 0.0000000000000000e+00 0.0000000000000000e+00  0.0000000000000000e+00 0.0000000000000000e+00 0.0000000000000000e+00  0.0000000000000000e+00 0.0000000000000000e+00 0.0000000000000000e+00  0.0000000000000000e+00 0.0000000000000000e+00 0.0000000000000000e+00  0.0000000000000000e+00 0.0000000000000000e+00 0.0000000000000000e+00  0.0000000000000000e+00 0.0000000000000000e+00 0.0000000000000000e+00  0.0000000000000000e+00 0.0000000000000000e+00 0.0000000000000000e+00  0.0000000000000000e+00 0.0000000000000000e+00 0.0000000000000000e+00  0.0000000000000000e+00 0.0000000000000000e+00 0.0000000000000000e+00  0.0000000000000000e+00 0.0000000000000000e+00 0.0000000000000000e+00  0.0000000000000000e+00 0.0000000000000000e+00 0.0000000000000000e+00  0.0000000000000000e+00 0.0000000000000000e+00 0.0000000000000000e+00  0.0000000000000000e+00 0.0000000000000000e+00 0.0000000000000000e+00  0.0000000000000000e+00 0.0000000000000000e+00 0.0000000000000000e+00  0.0000000000000000e+00 0.0000000000000000e+00 0.0000000000000000e+00  0.0000000000000000e+00 0.0000000000000000e+00 0.0000000000000000e+00  0.0000000000000000e+00 0.0000000000000000e+00 0.0000000000000000e+00  0.0000000000000000e+00 0.0000000000000000e+00 0.0000000000000000e+00  0.0000000000000000e+00 0.0000000000000000e+00 0.0000000000000000e+00  0.0000000000000000e+00 0.0000000000000000e+00 0.0000000000000000e+00  0.0000000000000000e+00 0.0000000000000000e+00 0.0000000000000000e+00  0.0000000000000000e+00 0.0000000000000000e+00 0.0000000000000000e+00  0.0000000000000000e+00 0.0000000000000000e+00 0.0000000000000000e+00  0.0000000000000000e+00 0.0000000000000000e+00 0.0000000000000000e+00  0.0000000000000000e+00 0.0000000000000000e+00 0.0000000000000000e+00  0.0000000000000000e+00 0.0000000000000000e+00 0.0000000000000000e+00  0.0000000000000000e+00 0.0000000000000000e+00 0.0000000000000000e+00  0.0000000000000000e+00 0.0000000000000000e+00 0.0000000000000000e+00  0.0000000000000000e+00 0.0000000000000000e+00 0.0000000000000000e+00  0.0000000000000000e+00 0.0000000000000000e+00 0.0000000000000000e+00  0.0000000000000000e+00 0.0000000000000000e+00 0.0000000000000000e+00  0.0000000000000000e+00 0.0000000000000000e+00 0.0000000000000000e+00  0.0000000000000000e+00 0.0000000000000000e+00 0.0000000000000000e+00  0.0000000000000000e+00 0.0000000000000000e+00 0.0000000000000000e+00  0.0000000000000000e+00 0.0000000000000000e+00 0.0000000000000000e+00  0.0000000000000000e+00 0.0000000000000000e+00 0.0000000000000000e+00  0.0000000000000000e+00 0.0000000000000000e+00 0.0000000000000000e+00  0.0000000000000000e+00 0.0000000000000000e+00 0.0000000000000000e+00  0.0000000000000000e+00 0.0000000000000000e+00 0.0000000000000000e+00  0.0000000000000000e+00 0.0000000000000000e+00 0.0000000000000000e+00  0.0000000000000000e+00 0.0000000000000000e+00 0.0000000000000000e+00  0.0000000000000000e+00 0.0000000000000000e+00 0.0000000000000000e+00  0.0000000000000000e+00 0.0000000000000000e+00 0.0000000000000000e+00  0.0000000000000000e+00 0.0000000000000000e+00 0.0000000000000000e+00  0.0000000000000000e+00 0.0000000000000000e+00 0.0000000000000000e+00  0.0000000000000000e+00 0.0000000000000000e+00 0.0000000000000000e+00  0.0000000000000000e+00 0.0000000000000000e+00 0.0000000000000000e+00  0.0000000000000000e+00 0.0000000000000000e+00 0.0000000000000000e+00  0.0000000000000000e+00 0.0000000000000000e+00 0.0000000000000000e+00  0.0000000000000000e+00 0.0000000000000000e+00 0.0000000000000000e+00  3.9340926646874108e-02 8.7249061334987485e-02 0.0000000000000000e+00  3.0500027961325345e-02 4.1951829993110173e-02 0.0000000000000000e+00  1.9840545738790991e-02 1.3788193988695538e-03 0.0000000000000000e+00  1.8045401940319963e-02 -3.4877568557115143e-02 0.0000000000000000e+00  9.5488193412626692e-03 -4.6270500312907026e-02 0.0000000000000000e+00  1.6416488020775537e-02 -6.9893607147013606e-02 0.0000000000000000e+00  1.2257834854312873e-02 -7.4747192071130578e-02 0.0000000000000000e+00  -2.5205829141817793e-03 -7.8113573277713830e-02 0.0000000000000000e+00  1.6502791477083691e-02 -7.0385803257716206e-02 0.0000000000000000e+00  -3.0173154327324883e-03 -7.3138472241959337e-02 0.0000000000000000e+00  1.4556231276858560e-02 -7.0895703081350389e-02 0.0000000000000000e+00  -3.0213643944552188e-03 -6.9242563708767954e-02 0.0000000000000000e+00  1.4535608691470154e-02 -7.0195093848220508e-02 0.0000000000000000e+00  1.8092166672465147e-04 -6.4232527638605263e-02 0.0000000000000000e+00  -1.5202445353663990e-03 -6.1950770734142194e-02 0.0000000000000000e+00  4.8433943376955694e-03 -5.5711767883891060e-02 0.0000000000000000e+00  -2.2334268778082134e-03 -5.7581106474898197e-02 0.0000000000000000e+00  5.4679596837514709e-03 -5.4276637889855095e-02 0.0000000000000000e+00  -3.3824169913051288e-03 -5.4629834043362767e-02 0.0000000000000000e+00  6.9837479978952111e-03 -5.4136143552047267e-02 0.0000000000000000e+00  -5.2421099045282032e-03 -5.3944795115480386e-02 0.0000000000000000e+00  9.8564602221958928e-03 -5.5102023925449960e-02 0.0000000000000000e+00  -2.6231056168075227e-03 -5.3331857604287915e-02 0.0000000000000000e+00  -4.9193813905309466e-03 -5.6234212178321301e-02 0.0000000000000000e+00  2.5717199203995731e-03 -5.8356775268892713e-02 0.0000000000000000e+00  -3.1943708555394528e-03 -5.9784937097357584e-02 0.0000000000000000e+00  2.7567970300380004e-03 -6.2857769858436760e-02 0.0000000000000000e+00  -6.5147429363342398e-03 -6.6894951025595367e-02 0.0000000000000000e+00  6.9551807194564910e-03 -6.8648524388129295e-02 0.0000000000000000e+00  -9.8859342227581547e-03 -7.1151156197867355e-02 0.0000000000000000e+00  8.3503897246223532e-03 -7.5744033398566696e-02 0.0000000000000000e+00  -9.1938339049629121e-03 -7.7414238269052957e-02 0.0000000000000000e+00  6.4123941861389099e-03 -8.8421900438103634e-02 0.0000000000000000e+00  -1.0064447634580113e-02 -9.1353899398147961e-02 0.0000000000000000e+00  6.9998826364015641e-03 -9.2657591923722291e-02 0.0000000000000000e+00  -1.3193231070555925e-02 -9.2559299147709995e-02 0.0000000000000000e+00  9.9290199904124438e-03 -1.0000341330682981e-01 0.0000000000000000e+00  -1.6686990165727982e-02 -1.0951891631011940e-01 0.0000000000000000e+00  1.2033820003656598e-02 -1.1795020515462952e-01 0.0000000000000000e+00  -1.5971863449284574e-02 -1.1266118238371763e-01 0.0000000000000000e+00  1.0598336960374682e-02 -1.2287559153215703e-01 0.0000000000000000e+00  1.0600693961367983e-04 -1.1929111632284212e-01 0.0000000000000000e+00  -1.9154939921539386e-02 -1.1939192536776183e-01 0.0000000000000000e+00  1.2330976036670218e-02 -1.0681458849200451e-01 0.0000000000000000e+00  -1.0701641111352645e-02 -1.1333649776553584e-01 0.0000000000000000e+00  2.3904999017982424e-02 -8.4112010888517053e-02 0.0000000000000000e+00  2.5408501671913684e-02 -5.9372552183653275e-02 0.0000000000000000e+00  -1.5852962229922010e-02 -5.0874826696518931e-02 0.0000000000000000e+00  -4.9412467189206702e-03 -7.5741712144281548e-02 0.0000000000000000e+00  1.9185084157685408e-02 -1.0346473577336264e-01 0.0000000000000000e+00  -4.7049365707228655e-03 -1.0760056748359492e-01 0.0000000000000000e+00  2.0374218720782419e-02 -1.2218294195709976e-01 0.0000000000000000e+00  5.2031955079429506e-03 -1.1244079020402876e-01 0.0000000000000000e+00  -1.3045115811060704e-02 -1.1858893049812572e-01 0.0000000000000000e+00  1.6959367749178406e-02 -1.0561373078392601e-01 0.0000000000000000e+00  -1.3021979757441193e-02 -1.0540326889616045e-01 0.0000000000000000e+00  1.4624376365057552e-02 -1.0229065584462484e-01 0.0000000000000000e+00  -1.1569796438165313e-02 -1.0042989822696284e-01 0.0000000000000000e+00  1.1722373664964588e-02 -9.2799746479237291e-02 0.0000000000000000e+00  -1.0989740203085997e-02 -8.8069303617257774e-02 0.0000000000000000e+00  1.0566587924203273e-02 -7.9520834137849855e-02 0.0000000000000000e+00  -1.0895401770852827e-02 -7.6663220863660828e-02 0.0000000000000000e+00  8.5040855307736713e-03 -7.3352576482708112e-02 0.0000000000000000e+00  -9.6956389414181911e-03 -7.1835704283584795e-02 0.0000000000000000e+00  7.2336620671587274e-03 -6.7664895741685854e-02 0.0000000000000000e+00  -9.1621071870288135e-03 -6.4517854981833642e-02 0.0000000000000000e+00  6.6522306946236167e-03 -5.9472216024695559e-02 0.0000000000000000e+00  -8.7471797975273609e-03 -5.7971759063090982e-02 0.0000000000000000e+00  6.0404327313105643e-03 -5.6822233019712697e-02 0.0000000000000000e+00  -7.8099732191303792e-03 -5.5121479828772378e-02 0.0000000000000000e+00  6.1916626855061350e-03 -5.6327725397664480e-02 0.0000000000000000e+00  -2.8513474067454101e-03 -5.3626414093238046e-02 0.0000000000000000e+00  -7.0996368935405396e-03 -5.4811563920106485e-02 0.0000000000000000e+00  1.3363491588551345e-03 -5.2158392443323862e-02 0.0000000000000000e+00  -6.5273392804909448e-03 -5.5797675846368529e-02 0.0000000000000000e+00  2.1322320747450942e-03 -5.8530730076061070e-02 0.0000000000000000e+00  -6.1090501137299443e-03 -5.9596279212532806e-02 0.0000000000000000e+00  2.2663408253604848e-03 -6.0433849128963622e-02 0.0000000000000000e+00  -5.7346567240868403e-03 -5.8311846251988847e-02 0.0000000000000000e+00  2.7196657289329058e-03 -6.1976814726054832e-02 0.0000000000000000e+00  5.1734632242246603e-05 -6.4332000938841449e-02 0.0000000000000000e+00  -1.4583637992352497e-02 -7.0774767203010652e-02 0.0000000000000000e+00  3.9111572952380061e-03 -7.0388774894899905e-02 0.0000000000000000e+00  -1.5609450791499880e-02 -7.3485616198373557e-02 0.0000000000000000e+00  4.4244876261140802e-03 -7.5560416771011371e-02 0.0000000000000000e+00  -1.7326304152975956e-02 -7.4049055083302534e-02 0.0000000000000000e+00  3.7368634942754179e-03 -7.7504509557265816e-02 0.0000000000000000e+00  -1.2304923446138661e-02 -7.3433279146774777e-02 0.0000000000000000e+00  -1.7775876353224931e-02 -7.0077678564996360e-02 0.0000000000000000e+00  -1.0611411938080417e-02 -4.7539463389593896e-02 0.0000000000000000e+00  -2.0153112831176982e-02 -3.5746286934865423e-02 0.0000000000000000e+00  -2.0910839606894906e-02 2.5303689140147097e-04 0.0000000000000000e+00  -3.0901167053748339e-02 4.0152780098779740e-02 0.0000000000000000e+00  -4.0746577521650854e-02 8.7461838590439780e-02 0.0000000000000000e+00  -4.0502403234189514e-04 -2.3199981953192034e-02 0.0000000000000000e+00  -1.8249223619079618e-03 6.4131173643075703e-02 0.0000000000000000e+00  -1.4959776245724900e-03 8.6983838101353059e-02 0.0000000000000000e+00  3.5965812430860905e-03 9.2231078378043674e-02 0.0000000000000000e+00  7.5397966655154573e-04 1.4605909727288218e-02 0.0000000000000000e+00  2.3515363185826226e-04 8.6052452524466777e-02 0.0000000000000000e+00  1.8236812170014657e-04 4.3057808804818506e-02 0.0000000000000000e+00  1.6269100970054318e-04 7.7883520853374286e-02 0.0000000000000000e+00  2.0237112738191185e-03 6.0724429353668487e-02 0.0000000000000000e+00  2.5576283807680357e-04 5.8616447348892570e-02 0.0000000000000000e+00  -4.5559744072735741e-04 6.9915506076079201e-02 0.0000000000000000e+00  1.5280163643039753e-03 4.8239512225892539e-02 0.0000000000000000e+00  2.8849116693249828e-05 5.6562635273561888e-02 0.0000000000000000e+00  -1.5401035073335095e-03 5.3163122072126402e-02 0.0000000000000000e+00  -6.8548307653807061e-05 4.6082321423809379e-02 0.0000000000000000e+00  -2.2120310050977284e-04 5.1715346084674527e-02 0.0000000000000000e+00  2.3399479504573255e-04 6.2771072917187393e-02 0.0000000000000000e+00  -7.4411569635188647e-04 4.4598094395008274e-02 0.0000000000000000e+00  1.7969028272335155e-04 4.7445678365148458e-02 0.0000000000000000e+00  -3.9079113808613186e-04 4.2511527526381238e-02 0.0000000000000000e+00  -1.2388856558004460e-03 4.4466566656369375e-02 0.0000000000000000e+00  5.6819160635316127e-04 3.4839865950698816e-02 0.0000000000000000e+00  -1.2911173453092190e-04 4.0490879302127143e-02 0.0000000000000000e+00  -4.0240535764925249e-04 8.0129661453316348e-02 0.0000000000000000e+00  2.0900644497163923e-04 4.7142692326164408e-02 0.0000000000000000e+00  6.2139589504440111e-03 6.7504039702323562e-02 0.0000000000000000e+00  -1.5657760704829753e-02 -7.5551116699477325e-03 0.0000000000000000e+00  -3.0032778358765684e-03 5.6138740565336853e-02 0.0000000000000000e+00  -4.5757746267895373e-03 6.3294995588928329e-02 0.0000000000000000e+00  7.8903824674245240e-03 3.2498290033028794e-02 0.0000000000000000e+00  -3.8528786613959698e-03 4.2058952456008679e-02 0.0000000000000000e+00  -1.9674501419152919e-03 4.0755980410307070e-02 0.0000000000000000e+00  -1.9369504480427730e-03 5.0349101958048217e-02 0.0000000000000000e+00  -2.3231899241910495e-03 3.2781678345634793e-02 0.0000000000000000e+00  -7.1769777263757479e-04 3.6819161364631502e-02 0.0000000000000000e+00  -1.5757519283378701e-03 3.8198724563154735e-02 0.0000000000000000e+00  -7.0543679943057744e-04 3.2270133864921176e-02 0.0000000000000000e+00  -8.6656769382632620e-04 3.4971387354396533e-02 0.0000000000000000e+00  -2.0630059737637347e-03 4.6879987502560415e-02 0.0000000000000000e+00  4.2216611164722453e-04 3.3733567335830883e-02 0.0000000000000000e+00  1.9432166194234158e-04 3.1091951473755090e-02 0.0000000000000000e+00  -6.2469210059615653e-03 -4.2133268728393056e-02 0.0000000000000000e+00  4.6142039673038116e-03 -4.0862327106947274e-02 0.0000000000000000e+00  -2.5494387612600353e-02 4.4276328564690284e-02 0.0000000000000000e+00  1.5803561040722197e-02 -7.6939418749734593e-03 0