<?xml version="1.0"?>
<VTKFile type="UnstructuredGrid"  version="0.1"  >
<UnstructuredGrid>
<Piece  NumberOfPoints="1419" NumberOfCells="2698">
<Points>
<DataArray  type="Float64"  NumberOfComponents="3"  format="ascii">1.838133113332906e-09 -9.746713881169582e-07 0  1.330051011745762e-08 0.4099990211609007 0  2.500000019325107 -1.426566377736648e-06 0  2.500000019325116 0.4099985734336345 0  0.6000000204250068 0.1899985249375027 0  0.60000002806487 0.2099985267874408 0  0.25 0.2 0  0.1500000073126262 0.1999990320303648 0  0.2489897948556636 0.21 0  0.2489897948556636 0.19 0  0.6000000258011541 0.1999985195868189 0  1.317163702578023e-08 0.3807133071581276 0  1.280437728627724e-08 0.351427593641993 0  1.218645049327805e-08 0.3221418804982813 0  1.13169148524068e-08 0.2928561674804008 0  1.02392015038288e-08 0.26357045439858 0  8.994369537826815e-09 0.2342847411257372 0  7.632005639290207e-09 0.2049990274712074 0  6.263580466209718e-09 0.1757133134671244 0  4.9878935407708e-09 0.1464275990778347 0  3.868356193113934e-09 0.1171418843751796 0  2.992491679318183e-09 0.08785616947533262 0  2.345214130796756e-09 0.05857045454834079 0  1.960639333443266e-09 0.029284739781869 0  0.03015443931223555 -9.748599879871229e-07 0  0.06140002115104789 -9.755433355450223e-07 0  0.09377624131569277 -9.770931350602491e-07 0  0.1273239952448738 -9.801584750611693e-07 0  0.1620856842160855 -9.859050459903502e-07 0  0.1981052400640133 -9.971909996279388e-07 0  0.2354281795335812 -1.018284540034438e-06 0  0.2741016522643386 -1.051918481622021e-06 0  0.314174546698987 -1.098460516684267e-06 0  0.3556974882105002 -1.156069384443942e-06 0  0.3987229518586372 -1.217955786053862e-06 0  0.4433053060614665 -1.277123587786673e-06 0  0.4895008800045354 -1.328947140882354e-06 0  0.5373680686928144 -1.369200849603775e-06 0  0.5869673454315864 -1.396389277844244e-06 0  0.6383613815229154 -1.41303819690342e-06 0  0.6916151296615665 -1.421264955290749e-06 0  0.7467958766701963 -1.424868271524426e-06 0  0.8039733643403973 -1.426321400129396e-06 0  0.8632198324283978 -1.426792082739035e-06 0  0.9246101514984615 -1.426863360174919e-06 0  0.988221900103986 -1.426804766598175e-06 0  1.05413546469776 -1.426733692383013e-06 0  1.122434119756322 -1.426674451761352e-06 0  1.193204196402597 -1.426631477661361e-06 0  1.266535109168876 -1.426604040457003e-06 0  1.342519535351385 -1.426587881858485e-06 0  1.42125346781798 -1.426578306931174e-06 0  1.502836408425557 -1.426572686541956e-06 0  1.587371459080926 -1.426569658584407e-06 0  1.674965438100938 -1.426568055536112e-06 0  1.765729021149893 -1.426567202221208e-06 0  1.859776928204816 -1.426566782681491e-06 0  1.957227996811998 -1.426566562680545e-06 0  2.058205349194971 -1.4265664625221e-06 0  2.162836610515026 -1.426566411405491e-06 0  2.271253976615959 -1.426566389744943e-06 0  2.383594466128527 -1.42656638047494e-06 0  2.500000019325107 0.1024985734333852 0  2.500000019325111 0.2049985734331026 0  2.500000019325116 0.307498573433351 0  2.383594466128774 0.4099985734336372 0  2.271253976616442 0.4099985734336467 0  2.162836610515747 0.4099985734336693 0  2.058205349195969 0.4099985734337181 0  1.957227996813351 0.4099985734338172 0  1.859776928206742 0.409998573434048 0  1.765729021152733 0.4099985734344662 0  1.674965438105509 0.409998573435355 0  1.587371459088569 0.409998573436963 0  1.5028364084389 0.4099985734400262 0  1.42125346784201 0.4099985734459486 0  1.342519535393518 0.4099985734560129 0  1.266535109242062 0.4099985734736188 0  1.193204196531384 0.4099985735067951 0  1.122434119978943 0.4099985735663415 0  1.05413546506574 0.4099985736660091 0  0.9882219007182478 0.4099985738636963 0  0.9246101524901162 0.4099985742272128 0  0.8632198340150994 0.4099985749242135 0  0.8039733668247081 0.4099985763197754 0  0.7467958804854327 0.4099985791210694 0  0.6916151353399042 0.4099985845786036 0  0.6383613897303086 0.4099985951894121 0  0.586967356865462 0.4099986133790094 0  0.5373680838448542 0.4099986414021063 0  0.489500899146729 0.409998681122352 0  0.4433053290295059 0.409998730451132 0  0.3987229779123392 0.4099987860556351 0  0.3556975160964181 0.4099988434893061 0  0.3141745749176466 0.4099988970730452 0  0.2741016792313569 0.4099989415602121 0  0.2354282041810162 0.4099989735409337 0  0.1981052617899653 0.4099989945688212 0  0.1620857029518445 0.4099990069090158 0  0.1273240113377674 0.4099990137921085 0  0.09377625531955548 0.4099990177582243 0  0.06140003370421319 0.4099990198209385 0  0.03015445102138459 0.4099990208930342 0  0.2497468076502589 0.2050254481002335 0  0.2497468076502614 0.1949745518997913 0  0.2469965136738653 0.1829312291792757 0  0.2439893608853343 0.1762309912711123 0  0.2400332026705897 0.1700435918889814 0  0.2352133862829293 0.1645024792099434 0  0.2296338919150105 0.1597271747726735 0  0.2234150890037014 0.1558206924644664 0  0.2166911392052993 0.1528673044326014 0  0.2096071020058972 0.1509307229879295 0  0.2023158053473009 0.1500527241046318 0  0.1949745483753569 0.1502522489043598 0  0.1877417081698536 0.1515249913249504 0  0.180773322788574 0.1538434933540811 0  0.1742197251386538 0.1571577358502826 0  0.1682222995983852 0.1613962185866205 0  0.1629104320218414 0.1664675019707849 0  0.1583987182547947 0.1722621802808618 0  0.154784492060436 0.1786552414864916 0  0.152145725130632 0.185508764474103 0  0.1505393451133671 0.192674894286444 0  0.1505393472133705 0.207323169996061 0  0.1521457293510208 0.214489300503402 0  0.1547844983574446 0.2213428246955121 0  0.158398726662769 0.2277358877660265 0  0.1629104425099136 0.2335305687222568 0  0.1682223122102509 0.2386018559240873 0  0.1742197398335142 0.2428403437955609 0  0.1807733396051378 0.2461545934166242 0  0.1877417271093688 0.2484731052399158 0  0.1949745694537351 0.2497458611601113 0  0.2023158285433685 0.2499454038080447 0  0.2096071273691107 0.2490674298485966 0  0.2166911666725475 0.2471308812272047 0  0.2234151185687308 0.2441775391007943 0  0.2296339234621008 0.2402711191514471 0  0.2352134195505999 0.2354959030997729 0  0.2400332370878324 0.2299549144443414 0  0.2439893948756925 0.2237677116949032 0  0.2469965429202541 0.2170678124668011 0  0.2564581208546896 0.2099995313061881 0  0.2639264287039157 0.2099993717348105 0  0.2713947349330289 0.2099992676027903 0  0.2788630371463465 0.2099991877590879 0  0.2863313396759213 0.209999122207971 0  0.2937996431030928 0.2099990647228477 0  0.3012679452384123 0.2099990122006921 0  0.308736246337568 0.2099989756538546 0  0.3162045513375698 0.2099989404939477 0  0.3236728516428132 0.2099989078037905 0  0.3311411566280651 0.2099988784459764 0  0.3386094562714673 0.2099988514507991 0  0.3460777602020302 0.2099988255843245 0  0.3535460603132068 0.2099987973496736 0  0.3610143605277599 0.2099987834048098 0  0.3684826637481009 0.2099987668031109 0  0.3759509630586702 0.2099987494024191 0  0.3834192662378334 0.2099987330414247 0  0.3908875655238107 0.2099987171988742 0  0.3983558687677703 0.2099987022937675 0  0.4058241678593001 0.2099986872474086 0  0.4132924707354789 0.2099986713902188 0  0.4207607700013007 0.2099986521481613 0  0.4282290702197492 0.2099986442726687 0  0.4356973730596174 0.209998633538308 0  0.4431656730591965 0.2099986216134259 0  0.450633976198723 0.2099986095678968 0  0.4581022761094636 0.2099985978611112 0  0.4655705796166997 0.2099985864598887 0  0.4730388793825283 0.2099985754134918 0  0.4805071832982282 0.2099985646056959 0  0.4879754833421452 0.209998554190912 0  0.4954437878372036 0.2099985439153859 0  0.5029120877273758 0.2099985349703002 0  0.5103803925173387 0.2099985269861764 0  0.5178486929487659 0.209998519865697 0  0.5253169992454757 0.2099985127411459 0  0.532785299741897 0.2099985060937115 0  0.5402536060332634 0.2099985007356641 0  0.5477219069872303 0.209998497068269 0  0.5551902140272277 0.2099984916944423 0  0.5626585160438753 0.2099984825678908 0  0.5701268174223112 0.2099984949420942 0  0.5775951242574497 0.2099985029827151 0  0.5850634250976566 0.2099985084798784 0  0.5925317288814047 0.209998517472246 0  0.6000000290382485 0.20499852204615 0  0.6000000214166624 0.1949985224604616 0  0.5925317174489605 0.1899985142539203 0  0.5850634175713046 0.1899985034205998 0  0.5775951122511677 0.1899984948698281 0  0.5701268120872116 0.1899984867031239 0  0.5626585074036005 0.189998474883164 0  0.5551902016755035 0.189998482187054 0  0.5477219013597148 0.1899984849639458 0  0.5402535945034977 0.1899984878706485 0  0.5327852943981469 0.1899984921147634 0  0.5253169870563612 0.1899984976956348 0  0.5178486858518427 0.1899985044022956 0  0.5103803789314119 0.1899985120113852 0  0.502912078432486 0.1899985203968015 0  0.4954437719156464 0.1899985297344012 0  0.4879754712827709 0.1899985398760174 0  0.4805071649441657 0.189998550719585 0  0.4730388635641938 0.1899985620325971 0  0.4655705575383276 0.1899985739125493 0  0.4581022567009331 0.1899985861721925 0  0.4506339512842371 0.1899985988046696 0  0.4431656503266559 0.1899986117594427 0  0.4356973447962297 0.1899986249317484 0  0.4282290430867945 0.1899986375261378 0  0.4207607381845745 0.1899986470127756 0  0.4132924339842435 0.1899986672646924 0  0.4058241328237381 0.1899986850022179 0  0.3983558283615085 0.18999870112687 0  0.3908875268358807 0.189998717560161 0  0.3834192222090391 0.1899987342643881 0  0.3759509204798652 0.1899987514125852 0  0.3684826159205821 0.1899987692183209 0  0.3610143147005888 0.1899987858604907 0  0.3535460101048972 0.1899988005914646 0  0.3460777047944779 0.1899988291886517 0  0.3386094032884664 0.1899988562858949 0  0.3311410979415652 0.1899988836034779 0  0.323672797129557 0.1899989131111677 0  0.3162044923899152 0.1899989455676712 0  0.3087361917519483 0.189998980082715 0  0.3012678871282851 0.1899990163078361 0  0.2937995840296037 0.1899990681347634 0  0.2863312824528084 0.1899991252847011 0  0.2788629802657803 0.1899991906016069 0  0.2713946770152353 0.1899992703160117 0  0.2639263772104005 0.1899993752865033 0  0.2564580783340418 0.1899995341186305 0  0.
[...]
<PointData  Vectors="f_30-0"> 
<DataArray  type="Float64"  Name="f_30-0"  NumberOfComponents="3" format="ascii">0.0000000000000000e+00 0.0000000000000000e+00 0.0000000000000000e+00  0.0000000000000000e+00 0.0000000000000000e+00 0.0000000000000000e+00  0.0000000000000000e+00 0.0000000000000000e+00 0.0000000000000000e+00  0.0000000000000000e+00 0.0000000000000000e+00 0.0000000000000000e+00  8.0084996738483075e-03 -4.6985792522168085e-02 0.0000000000000000e+00  1.5752448015981357e-02 -4.1880245720923123e-02 0.0000000000000000e+00  0.0000000000000000e+00 0.0000000000000000e+00 0.0000000000000000e+00  0.0000000000000000e+00 0.0000000000000000e+00 0.0000000000000000e+00  0.0000000000000000e+00 0.0000000000000000e+00 0.0000000000000000e+00  0.0000000000000000e+00 0.0000000000000000e+00 0.0000000000000000e+00  3.8240680611259112e-02 -1.1453137174886976e-01 0.0000000000000000e+00  0.0000000000000000e+00 0.0000000000000000e+00 0.0000000000000000e+00  0.0000000000000000e+00 0.0000000000000000e+00 0.0000000000000000e+00  0.0000000000000000e+00 0.0000000000000000e+00 0.0000000000000000e+00  0.0000000000000000e+00 0.0000000000000000e+00 0.0000000000000000e+00  0.0000000000000000e+00 0.0000000000000000e+00 0.0000000000000000e+00  0.0000000000000000e+00 0.0000000000000000e+00 0.0000000000000000e+00  0.0000000000000000e+00 0.0000000000000000e+00 0.0000000000000000e+00  0.0000000000000000e+00 0.0000000000000000e+00 0.0000000000000000e+00  0.0000000000000000e+00 0.0000000000000000e+00 0.0000000000000000e+00  0.0000000000000000e+00 0.0000000000000000e+00 0.0000000000000000e+00  0.0000000000000000e+00 0.0000000000000000e+00 0.0000000000000000e+00  0.0000000000000000e+00 0.0000000000000000e+00 0.0000000000000000e+00  0.0000000000000000e+00 0.0000000000000000e+00 0.0000000000000000e+00  0.0000000000000000e+00 0.0000000000000000e+00 0.0000000000000000e+00  0.0000000000000000e+00 0.0000000000000000e+00 0.0000000000000000e+00  0.0000000000000000e+00 0.0000000000000000e+00 0.0000000000000000e+00  0.0000000000000000e+00 0.0000000000000000e+00 0.0000000000000000e+00  0.0000000000000000e+00 0.0000000000000000e+00 0.0000000000000000e+00  0.0000000000000000e+00 0.0000000000000000e+00 0.0000000000000000e+00  0.0000000000000000e+00 0.0000000000000000e+00 0.0000000000000000e+00  0.0000000000000000e+00 0.0000000000000000e+00 0.0000000000000000e+00  0.0000000000000000e+00 0.0000000000000000e+00 0.0000000000000000e+00  0.0000000000000000e+00 0.0000000000000000e+00 0.0000000000000000e+00  0.0000000000000000e+00 0.0000000000000000e+00 0.0000000000000000e+00  0.0000000000000000e+00 0.0000000000000000e+00 0.0000000000000000e+00  0.0000000000000000e+00 0.0000000000000000e+00 0.0000000000000000e+00  0.0000000000000000e+00 0.0000000000000000e+00 0.0000000000000000e+00  0.0000000000000000e+00 0.0000000000000000e+00 0.0000000000000000e+00  0.0000000000000000e+00 0.0000000000000000e+00 0.0000000000000000e+00  0.0000000000000000e+00 0.0000000000000000e+00 0.0000000000000000e+00  0.0000000000000000e+00 0.0000000000000000e+00 0.0000000000000000e+00  0.0000000000000000e+00 0.0000000000000000e+00 0.0000000000000000e+00  0.0000000000000000e+00 0.0000000000000000e+00 0.0000000000000000e+00  0.0000000000000000e+00 0.0000000000000000e+00 0.0000000000000000e+00  0.0000000000000000e+00 0.0000000000000000e+00 0.0000000000000000e+00  0.0000000000000000e+00 0.0000000000000000e+00 0.0000000000000000e+00  0.0000000000000000e+00 0.0000000000000000e+00 0.0000000000000000e+00  0.0000000000000000e+00 0.0000000000000000e+00 0.0000000000000000e+00  0.0000000000000000e+00 0.0000000000000000e+00 0.0000000000000000e+00  0.0000000000000000e+00 0.0000000000000000e+00 0.0000000000000000e+00  0.0000000000000000e+00 0.0000000000000000e+00 0.0000000000000000e+00  0.0000000000000000e+00 0.0000000000000000e+00 0.0000000000000000e+00  0.0000000000000000e+00 0.0000000000000000e+00 0.0000000000000000e+00  0.0000000000000000e+00 0.0000000000000000e+00 0.0000000000000000e+00  0.0000000000000000e+00 0.0000000000000000e+00 0.0000000000000000e+00  0.0000000000000000e+00 0.0000000000000000e+00 0.0000000000000000e+00  0.0000000000000000e+00 0.0000000000000000e+00 0.0000000000000000e+00  0.0000000000000000e+00 0.0000000000000000e+00 0.0000000000000000e+00  0.0000000000000000e+00 0.0000000000000000e+00 0.0000000000000000e+00  0.0000000000000000e+00 0.0000000000000000e+00 0.0000000000000000e+00  0.0000000000000000e+00 0.0000000000000000e+00 0.0000000000000000e+00  4.9522173271621183e-09 1.6501762874486571e-09 0.0000000000000000e+00  -1.9986803219346543e-10 2.1374460486745956e-09 0.0000000000000000e+00  -5.2964665346164959e-09 1.9978555026941667e-09 0.0000000000000000e+00  0.0000000000000000e+00 0.0000000000000000e+00 0.0000000000000000e+00  0.0000000000000000e+00 0.0000000000000000e+00 0.0000000000000000e+00  0.0000000000000000e+00 0.0000000000000000e+00 0.0000000000000000e+00  0.0000000000000000e+00 0.0000000000000000e+00 0.0000000000000000e+00  0.0000000000000000e+00 0.0000000000000000e+00 0.0000000000000000e+00  0.0000000000000000e+00 0.0000000000000000e+00 0.0000000000000000e+00  0.0000000000000000e+00 0.0000000000000000e+00 0.0000000000000000e+00  0.0000000000000000e+00 0.0000000000000000e+00 0.0000000000000000e+00  0.0000000000000000e+00 0.0000000000000000e+00 0.0000000000000000e+00  0.0000000000000000e+00 0.0000000000000000e+00 0.0000000000000000e+00  0.0000000000000000e+00 0.0000000000000000e+00 0.0000000000000000e+00  0.0000000000000000e+00 0.0000000000000000e+00 0.0000000000000000e+00  0.0000000000000000e+00 0.0000000000000000e+00 0.0000000000000000e+00  0.0000000000000000e+00 0.0000000000000000e+00 0.0000000000000000e+00  0.0000000000000000e+00 0.0000000000000000e+00 0.0000000000000000e+00  0.0000000000000000e+00 0.0000000000000000e+00 0.0000000000000000e+00  0.0000000000000000e+00 0.0000000000000000e+00 0.0000000000000000e+00  0.0000000000000000e+00 0.0000000000000000e+00 0.0000000000000000e+00  0.0000000000000000e+00 0.0000000000000000e+00 0.0000000000000000e+00  0.0000000000000000e+00 0.0000000000000000e+00 0.0000000000000000e+00  0.0000000000000000e+00 0.0000000000000000e+00 0.0000000000000000e+00  0.0000000000000000e+00 0.0000000000000000e+00 0.0000000000000000e+00  0.0000000000000000e+00 0.0000000000000000e+00 0.0000000000000000e+00  0.0000000000000000e+00 0.0000000000000000e+00 0.0000000000000000e+00  0.0000000000000000e+00 0.0000000000000000e+00 0.0000000000000000e+00  0.0000000000000000e+00 0.0000000000000000e+00 0.0000000000000000e+00  0.0000000000000000e+00 0.0000000000000000e+00 0.0000000000000000e+00  0.0000000000000000e+00 0.0000000000000000e+00 0.0000000000000000e+00  0.0000000000000000e+00 0.0000000000000000e+00 0.0000000000000000e+00  0.0000000000000000e+00 0.0000000000000000e+00 0.0000000000000000e+00  0.0000000000000000e+00 0.0000000000000000e+00 0.0000000000000000e+00  0.0000000000000000e+00 0.0000000000000000e+00 0.0000000000000000e+00  0.0000000000000000e+00 0.0000000000000000e+00 0.0000000000000000e+00  0.0000000000000000e+00 0.0000000000000000e+00 0.0000000000000000e+00  0.0000000000000000e+00 0.0000000000000000e+00 0.0000000000000000e+00  0.0000000000000000e+00 0.0000000000000000e+00 0.0000000000000000e+00  0.0000000000000000e+00 0.0000000000000000e+00 0.0000000000000000e+00  0.0000000000000000e+00 0.0000000000000000e+00 0.0000000000000000e+00  0.0000000000000000e+00 0.0000000000000000e+00 0.0000000000000000e+00  0.0000000000000000e+00 0.0000000000000000e+00 0.0000000000000000e+00  0.0000000000000000e+00 0.0000000000000000e+00 0.0000000000000000e+00  0.0000000000000000e+00 0.0000000000000000e+00 0.0000000000000000e+00  0.0000000000000000e+00 0.0000000000000000e+00 0.0000000000000000e+00  0.0000000000000000e+00 0.0000000000000000e+00 0.0000000000000000e+00  0.0000000000000000e+00 0.0000000000000000e+00 0.0000000000000000e+00  0.0000000000000000e+00 0.0000000000000000e+00 0.0000000000000000e+00  0.0000000000000000e+00 0.0000000000000000e+00 0.0000000000000000e+00  0.0000000000000000e+00 0.0000000000000000e+00 0.0000000000000000e+00  0.0000000000000000e+00 0.0000000000000000e+00 0.0000000000000000e+00  0.0000000000000000e+00 0.0000000000000000e+00 0.0000000000000000e+00  0.0000000000000000e+00 0.0000000000000000e+00 0.0000000000000000e+00  0.0000000000000000e+00 0.0000000000000000e+00 0.0000000000000000e+00  0.0000000000000000e+00 0.0000000000000000e+00 0.0000000000000000e+00  0.0000000000000000e+00 0.0000000000000000e+00 0.0000000000000000e+00  0.0000000000000000e+00 0.0000000000000000e+00 0.0000000000000000e+00  0.0000000000000000e+00 0.0000000000000000e+00 0.0000000000000000e+00  0.0000000000000000e+00 0.0000000000000000e+00 0.0000000000000000e+00  0.0000000000000000e+00 0.0000000000000000e+00 0.0000000000000000e+00  0.0000000000000000e+00 0.0000000000000000e+00 0.0000000000000000e+00  0.0000000000000000e+00 0.0000000000000000e+00 0.0000000000000000e+00  0.0000000000000000e+00 0.0000000000000000e+00 0.0000000000000000e+00  0.0000000000000000e+00 0.0000000000000000e+00 0.0000000000000000e+00  0.0000000000000000e+00 0.0000000000000000e+00 0.0000000000000000e+00  0.0000000000000000e+00 0.0000000000000000e+00 0.0000000000000000e+00  0.0000000000000000e+00 0.0000000000000000e+00 0.0000000000000000e+00  0.0000000000000000e+00 0.0000000000000000e+00 0.0000000000000000e+00  0.0000000000000000e+00 0.0000000000000000e+00 0.0000000000000000e+00  0.0000000000000000e+00 0.0000000000000000e+00 0.0000000000000000e+00  0.0000000000000000e+00 0.0000000000000000e+00 0.0000000000000000e+00  0.0000000000000000e+00 0.0000000000000000e+00 0.0000000000000000e+00  0.0000000000000000e+00 0.0000000000000000e+00 0.0000000000000000e+00  0.0000000000000000e+00 0.0000000000000000e+00 0.0000000000000000e+00  0.0000000000000000e+00 0.0000000000000000e+00 0.0000000000000000e+00  0.0000000000000000e+00 0.0000000000000000e+00 0.0000000000000000e+00  0.0000000000000000e+00 0.0000000000000000e+00 0.0000000000000000e+00  0.0000000000000000e+00 0.0000000000000000e+00 0.0000000000000000e+00  0.0000000000000000e+00 0.0000000000000000e+00 0.0000000000000000e+00  0.0000000000000000e+00 0.0000000000000000e+00 0.0000000000000000e+00  7.8181956233601038e-02 2.2647193890635095e-01 0.0000000000000000e+00  6.1867304411100374e-02 1.6999249227688054e-01 0.0000000000000000e+00  5.6135478551306822e-02 9.1708199048895225e-02 0.0000000000000000e+00  3.0028224724766555e-02 5.5723290606412568e-03 0.0000000000000000e+00  2.2461797002763798e-02 -3.1112164845164499e-02 0.0000000000000000e+00  2.2677318120572252e-02 -9.4635889060586328e-02 0.0000000000000000e+00  2.6080944241462695e-02 -1.2363065521225355e-01 0.0000000000000000e+00  -5.7108113836541871e-03 -1.4220536468784700e-01 0.0000000000000000e+00  3.2775727896931207e-02 -1.4070330577073720e-01 0.0000000000000000e+00  -5.7558985603570227e-03 -1.5171888073683212e-01 0.0000000000000000e+00  3.2414221534567238e-02 -1.5794176700739554e-01 0.0000000000000000e+00  -5.2135715596094241e-03 -1.5820167352324646e-01 0.0000000000000000e+00  3.6494740614261854e-02 -1.6864580792735431e-01 0.0000000000000000e+00  3.7199932428318406e-03 -1.6284664048713796e-01 0.0000000000000000e+00  -5.5564126533068576e-04 -1.5313855488649966e-01 0.0000000000000000e+00  1.4558898994139443e-02 -1.3512413427903153e-01 0.0000000000000000e+00  -3.5076915357739732e-03 -1.4226392314475164e-01 0.0000000000000000e+00  1.4626638148083938e-02 -1.3241415456176917e-01 0.0000000000000000e+00  -7.5743777638108360e-03 -1.3408533715867993e-01 0.0000000000000000e+00  1.7389734748341594e-02 -1.3362001974009297e-01 0.0000000000000000e+00  -1.3652000069176612e-02 -1.3355100357321492e-01 0.0000000000000000e+00  2.3842646412927059e-02 -1.3810626393328149e-01 0.0000000000000000e+00  -8.6299853598070277e-03 -1.3773531996502461e-01 0.0000000000000000e+00  -1.4943823431561616e-02 -1.4110433251691956e-01 0.0000000000000000e+00  2.8166179022999045e-03 -1.4723305806196207e-01 0.0000000000000000e+00  -1.1672278207685757e-02 -1.4981927352030233e-01 0.0000000000000000e+00  1.7235003967540853e-03 -1.5844651435978316e-01 0.0000000000000000e+00  -2.0850286945143834e-02 -1.6776999280739993e-01 0.0000000000000000e+00  1.1712202464881558e-02 -1.7120526562064267e-01 0.0000000000000000e+00  -2.9590024596502836e-02 -1.7586039303246936e-01 0.0000000000000000e+00  1.4207777265493807e-02 -1.8688727845296343e-01 0.0000000000000000e+00  -2.7828347507661708e-02 -1.8701846842633085e-01 0.0000000000000000e+00  9.4306984223166690e-03 -2.1729142171955995e-01 0.0000000000000000e+00  -2.6513637225636065e-02 -2.2018244064325115e-01 0.0000000000000000e+00  1.2576668195423100e-02 -2.1234173582716320e-01 0.0000000000000000e+00  -3.1628369899065693e-02 -2.0526601683470938e-01 0.0000000000000000e+00  1.8600168983374174e-02 -2.1624062593213531e-01 0.0000000000000000e+00  -3.5239278511796361e-02 -2.3671544930057697e-01 0.0000000000000000e+00  2.6807802685492405e-02 -2.4687200532115686e-01 0.0000000000000000e+00  -2.5702575072034491e-02 -2.2687107789786679e-01 0.0000000000000000e+00  2.9349730422226446e-02 -2.3341274999960757e-01 0.0000000000000000e+00  7.7028950148067812e-03 -2.2418162958109608e-01 0.0000000000000000e+00  -1.8288351145859097e-02 -2.0558371778089102e-01 0.0000000000000000e+00  3.7298118992245041e-02 -1.6823119810747936e-01 0.0000000000000000e+00  3.5868064921322123e-03 -1.9208968724604869e-01 0.0000000000000000e+00  6.9348575758525224e-02 -1.5375572535445842e-01 0.0000000000000000e+00  6.9307868472626252e-02 -1.1411695559605206e-01 0.0000000000000000e+00  -1.9870993242456805e-02 -9.1840706644109343e-02 0.0000000000000000e+00  -4.0632621044207591e-03 -1.1718562918655034e-01 0.0000000000000000e+00  4.1361131950969077e-02 -1.6163419754479236e-01 0.0000000000000000e+00  -2.0385613796826923e-03 -1.7583689421556781e-01 0.0000000000000000e+00  4.0294557981037302e-02 -2.1029796324181302e-01 0.0000000000000000e+00  1.4899197550463256e-02 -2.0387015215145043e-01 0.0000000000000000e+00  -2.2793171915641328e-02 -2.2273354395790626e-01 0.0000000000000000e+00  3.7281197565347868e-02 -2.1023477845543001e-01 0.0000000000000000e+00  -2.4894163898778861e-02 -2.1446718093241865e-01 0.0000000000000000e+00  3.2565621128521918e-02 -2.1569260552647768e-01 0.0000000000000000e+00  -2.5862300286749875e-02 -2.1425985317097015e-01 0.0000000000000000e+00  2.6288907468372216e-02 -2.0557449483945561e-01 0.0000000000000000e+00  -2.6223154039515764e-02 -1.9917778422423396e-01 0.0000000000000000e+00  2.4553636720376401e-02 -1.8850068255296787e-01 0.0000000000000000e+00  -2.7746032303721527e-02 -1.8372390405940245e-01 0.0000000000000000e+00  1.9656025564298081e-02 -1.7830326494593771e-01 0.0000000000000000e+00  -2.5900967494722590e-02 -1.7420372127411721e-01 0.0000000000000000e+00  1.6773603852753803e-02 -1.6621223123421500e-01 0.0000000000000000e+00  -2.5132082584212054e-02 -1.5907066472611200e-01 0.0000000000000000e+00  1.5360218542812410e-02 -1.4877019888739193e-01 0.0000000000000000e+00  -2.3637480254418884e-02 -1.4483758434962513e-01 0.0000000000000000e+00  1.4569122907461870e-02 -1.4243886585259866e-01 0.0000000000000000e+00  -2.1127199465270436e-02 -1.3820062730152427e-01 0.0000000000000000e+00  1.5071352280651826e-02 -1.4193644770074032e-01 0.0000000000000000e+00  -7.7276708293295910e-03 -1.3672667976276698e-01 0.0000000000000000e+00  -1.8984248133950027e-02 -1.3831704870077902e-01 0.0000000000000000e+00  3.9180896732552090e-03 -1.2941791756890056e-01 0.0000000000000000e+00  -1.6665680487590435e-02 -1.3739742180398490e-01 0.0000000000000000e+00  6.2363606587613708e-03 -1.4255667793905330e-01 0.0000000000000000e+00  -1.5691873974546008e-02 -1.4518253545660137e-01 0.0000000000000000e+00  6.3075143618719302e-03 -1.4724964638625296e-01 0.0000000000000000e+00  -1.4465205879332867e-02 -1.4358820366891495e-01 0.0000000000000000e+00  8.4939203809509603e-03 -1.5335156521811683e-01 0.0000000000000000e+00  -1.3023289012469092e-04 -1.5839121540726320e-01 0.0000000000000000e+00  -3.5019117972387104e-02 -1.6879341762901179e-01 0.0000000000000000e+00  8.2472893657058888e-03 -1.5936191782060591e-01 0.0000000000000000e+00  -3.7276581577380972e-02 -1.6123531743656910e-01 0.0000000000000000e+00  5.9120488447853116e-03 -1.5544864981753112e-01 0.0000000000000000e+00  -3.8724856783547222e-02 -1.4623727635888181e-01 0.0000000000000000e+00  3.3689086060193275e-03 -1.3979952754208813e-01 0.0000000000000000e+00  -2.9709576950046026e-02 -1.2008642744504922e-01 0.0000000000000000e+00  -3.1191008269824523e-02 -9.5664276759446734e-02 0.0000000000000000e+00  -2.8075064456951505e-02 -3.7433832605533547e-02 0.0000000000000000e+00  -2.9774247983063013e-02 -1.0416770915021257e-03 0.0000000000000000e+00  -5.3388007236562805e-02 8.5981948492007382e-02 0.0000000000000000e+00  -6.9342345335866348e-02 1.7839152624122398e-01 0.0000000000000000e+00  -8.8165703353234121e-02 2.3143598582189065e-01 0.0000000000000000e+00  -3.6751015798719782e-03 -1.0180142500629605e-01 0.0000000000000000e+00  -6.1774643342465980e-03 1.0373166073429081e-01 0.0000000000000000e+00  -1.0238386308938240e-03 1.4647944568403293e-01 0.0000000000000000e+00  7.1862766100623289e-03 1.7863508635854533e-01 0.0000000000000000e+00  -3.5588231754805841e-03 -3.6768861776830482e-02 0.0000000000000000e+00  6.3420555569736452e-04 1.7963961982914173e-01 0.0000000000000000e+00  2.5253728302649103e-03 4.2025271210894430e-02 0.0000000000000000e+00  5.1553328384916952e-04 1.6984743265329880e-01 0.0000000000000000e+00  3.8174451593130355e-03 1.1407746082043763e-01 0.0000000000000000e+00  7.0836235173793818e-04 1.2458198644283776e-01 0.0000000000000000e+00  -3.0123691421609757e-03 1.6231551336620600e-01 0.0000000000000000e+00  3.5878776575314114e-03 1.1829188242849255e-01 0.0000000000000000e+00  -9.8329574763304003e-04 1.3854728414966291e-01 0.0000000000000000e+00  -3.0638809552741538e-03 1.2279698864031097e-01 0.0000000000000000e+00  2.0961112179622427e-04 1.1269603635654175e-01 0.0000000000000000e+00  -1.3724637380073449e-03 1.2862509556980825e-01 0.0000000000000000e+00  9.0604634403741496e-04 1.5160383155932625e-01 0.0000000000000000e+00  -1.9883219371035332e-03 1.0955281849499703e-01 0.0000000000000000e+00  -1.3696114342023641e-04 1.1882821818914971e-01 0.0000000000000000e+00  -8.8297424472904488e-04 1.0596865958012998e-01 0.0000000000000000e+00  -3.6636589297414754e-03 1.1173200788571577e-01 0.0000000000000000e+00  1.6450813299723019e-03 8.9411803874735199e-02 0.0000000000000000e+00  -8.4737482578445993e-04 1.0114759397247149e-01 0.0000000000000000e+00  -2.4575575299012045e-03 1.4737934175287223e-01 0.0000000000000000e+00  1.9751081707678341e-03 7.8563711725448362e-02 0.0000000000000000e+00  1.0344403895882547e-02 1.0880346978054281e-01 0.0000000000000000e+00  -3.1319042639365684e-02 -7.6550730481688714e-02 0.0000000000000000e+00  -3.6547578272571836e-03 1.2038291513152927e-01 0.0000000000000000e+00  -6.1809518943638916e-03 1.2913572003725257e-01 0.0000000000000000e+00  2.3166838245211933e-02 1.8426632258631191e-02 0.0000000000000000e+00  -2.7465200804715033e-03 8.5711495662965237e-02 0.0000000000000000e+00  -3.5293034914017705e-03 9.9153017669436239e-02 0.0000000000000000e+00  -1.2766491721808457e-03 1.1310402993814897e-01 0.0000000000000000e+00  -6.4162326815082110e-03 8.1062068707416057e-02 0.0000000000000000e+00  -5.5838110518676755e-04 9.0654097270696218e-02 0.0000000000000000e+00  -1.0861190640344851e-04 8.5876772921570324e-02 0.0000000000000000e+00  -2.0077908709733726e-03 7.9343416959534244e-02 0.0000000000000000e+00  -1.4140642173743965e-03 8.7339070608302552e-02 0.0000000000000000e+00  -2.6489857800010286e-03 1.1296582264941199e-01 0.0000000000000000e+00  1.5863908403538616e-03 8.4028727498718564e-02 0.0000000000000000e+00  1.0481480302598624e-03 7.7635939822237057e-02 0.0000000000000000e+00  -2.3318810896092224e-02 -1.1934252537523007e-01 0.0000000000000000e+00  2.3648561991652113e-02 -1.1450300950076300e-01 0.0000000000000000e+00  -5.0722312258676551e-02 7.3744594338795183e-02 0.0000000000000000e+00  2.4674904301359282e-02 -7.7672511757500201e-02 