<?xml version="1.0"?>
<VTKFile type="UnstructuredGrid"  version="0.1"  >
<UnstructuredGrid>
<Piece  NumberOfPoints="1419" NumberOfCells="2698">
<Points>
<DataArray  type="Float64"  NumberOfComponents="3"  format="ascii">4.961438746917492e-08 -1.941106463708095e-06 0  7.237915514817004e-08 0.4099980502918451 0  2.500000142126058 -2.892706824269548e-06 0  2.500000142126082 0.4099971072931998 0  0.600000157999771 0.1899970157692757 0  0.600000180004726 0.2099970155053505 0  0.25 0.2 0  0.1500000599768846 0.1999980729644213 0  0.2489897948556636 0.21 0  0.2489897948556636 0.19 0  0.6000001744348146 0.1999970049009071 0  7.210888316558965e-08 0.3807123365969797 0  7.134096179893801e-08 0.3514266239181734 0  7.005846185066472e-08 0.3221409120159097 0  6.827480179550035e-08 0.2928552003738373 0  6.608674301047628e-08 0.2635694885953856 0  6.358246682072404e-08 0.2342837764152436 0  6.087044381500434e-08 0.2049980634352845 0  5.81670948338909e-08 0.175712349724351 0  5.566805603902907e-08 0.1464266352087794 0  5.349343682890133e-08 0.1171409200394576 0  5.180833675848563e-08 0.08785520446018004 0  5.057354835912001e-08 0.05856948882633559 0  4.984550157937051e-08 0.02928377353095641 0  0.03015448697360221 -1.941502411266053e-06 0  0.06140006844363295 -1.942936626748604e-06 0  0.09377628798174946 -1.946187796949535e-06 0  0.1273240410689576 -1.952616267572714e-06 0  0.1620857291022589 -1.964668291341528e-06 0  0.1981052842041651 -1.988359516286494e-06 0  0.2354282236586722 -2.032737021370824e-06 0  0.2741016976728067 -2.103777452227749e-06 0  0.3141745950920294 -2.202522689326183e-06 0  0.3556975419791554 -2.325472205108847e-06 0  0.3987230132003848 -2.457946297327035e-06 0  0.4433053770763455 -2.584243286974352e-06 0  0.4895009621122471 -2.693772141884593e-06 0  0.5373681620192774 -2.777382634609932e-06 0  0.586967448589276 -2.832696946243916e-06 0  0.638361492281901 -2.866028427790176e-06 0  0.6916152453779957 -2.882298078553203e-06 0  0.7467959953460259 -2.889385711544211e-06 0  0.8039734847686664 -2.892235526123546e-06 0  0.8632199538588805 -2.89315643005875e-06 0  0.9246102735076107 -2.893294092973364e-06 0  0.9882220224336371 -2.893177570804099e-06 0  1.054135587226823 -2.893036997090619e-06 0  1.122434242396264 -2.89292004278461e-06 0  1.193204319112096 -2.892835241221576e-06 0  1.266535231918866 -2.892781112021341e-06 0  1.342519658123739 -2.892749238485833e-06 0  1.421253590603235 -2.892730352614232e-06 0  1.502836531218261 -2.892719267172818e-06 0  1.587371581877604 -2.892713295062877e-06 0  1.674965560899708 -2.89271013337141e-06 0  1.765729143949772 -2.892708450386551e-06 0  1.85977705100524 -2.892707622934734e-06 0  1.957228119612708 -2.892707189030761e-06 0  2.058205471995812 -2.892706991490198e-06 0  2.162836733315934 -2.892706890673925e-06 0  2.271254099416894 -2.892706847953265e-06 0  2.383594588929475 -2.892706829670225e-06 0  2.500000142126058 0.1024971072929404 0  2.50000014212607 0.2049971072926619 0  2.500000142126079 0.3074971072929146 0  2.383594588929745 0.409997107293205 0  2.271254099417424 0.409997107293224 0  2.162836733316759 0.4099971072932686 0  2.058205471997044 0.4099971072933647 0  1.957228119614554 0.4099971072935603 0  1.859777051008245 0.4099971072940154 0  1.765729143954778 0.4099971072948403 0  1.674965560908704 0.4099971072965932 0  1.587371581893841 0.4099971072997645 0  1.502836531248105 0.4099971073058061 0  1.421253590658749 0.4099971073174862 0  1.342519658222848 0.4099971073373342 0  1.266535232092859 0.4099971073720541 0  1.193204319420265 0.409997107437473 0  1.122434242930908 0.4099971075548764 0  1.05413558811232 0.4099971077513605 0  0.9882220239136582 0.4099971081410257 0  0.9246102758958984 0.4099971088575502 0  0.8632199576861099 0.409997110231846 0  0.8039734907604036 0.4099971129863281 0  0.7467960045213172 0.4099971185256436 0  0.6916152589192489 0.4099971293574829 0  0.6383615115121751 0.4099971505719575 0  0.5869674748426907 0.4099971873545284 0  0.5373681957783013 0.4099972448397955 0  0.4895010033448074 0.4099973277753858 0  0.4433054252364981 0.4099974322804186 0  0.3987230667639328 0.409997551058544 0  0.355697598541472 0.4099976739900147 0  0.3141746519106736 0.4099977883362287 0  0.2741017516415464 0.4099978827767183 0  0.2354282728779671 0.4099979503221611 0  0.1981053275211204 0.409997994568422 0  0.1620857664007713 0.4099980204644804 0  0.1273240730713634 0.4099980348813813 0  0.09377631580904985 0.4099980431801711 0  0.06140009338300678 0.4099980474921588 0  0.03015451022862244 0.4099980497323265 0  0.2497468076502589 0.2050254481002335 0  0.2497468076502614 0.1949745518997913 0  0.2469965236448641 0.1829307708974472 0  0.2439893779746422 0.1762303663398621 0  0.2400332251853803 0.1700428673984465 0  0.2352134129783635 0.1645016908235215 0  0.2296339220540055 0.159726340440165 0  0.223415122003417 0.1558198249459847 0  0.2166911746184254 0.1528664126873659 0  0.2096071394584537 0.1509298137082989 0  0.2023158446489655 0.1500518012729339 0  0.1949745892809958 0.1502513163589994 0  0.187741750555778 0.1515240514117632 0  0.1807733665111574 0.1538425481175395 0  0.1742197701351048 0.1571567865765344 0  0.1682223457774902 0.1613952663938067 0  0.1629104793596357 0.1664665475467546 0  0.1583987666933503 0.1722612242356836 0  0.1547845415908994 0.1786542842211168 0  0.1521457757126633 0.1855078063472859 0  0.15053939675458 0.19267393555708 0  0.1505394008936987 0.2073222108353557 0  0.1521457840313274 0.2144883414974223 0  0.1547845540005588 0.221341866140517 0  0.1583987832598993 0.2277349300222776 0  0.1629105000182054 0.2335296122390158 0  0.1682223706080933 0.2386009013649268 0  0.1742197990515983 0.2428393919030723 0  0.180773399588853 0.2461536452295304 0  0.1877417877748722 0.2484721623591712 0  0.1949746306703773 0.2497449255354685 0  0.2023158901609108 0.2499444777622883 0  0.2096071891866161 0.2490665170995209 0  0.2166912284131191 0.2471299861601942 0  0.2234151798325527 0.244176668751821 0  0.2296339837418699 0.2402702815841298 0  0.2352134779961054 0.2354951120276903 0  0.2400332924972054 0.2299541874140665 0  0.2439894446404673 0.2237670837335392 0  0.2469965813177184 0.2170673517461208 0  0.2564581636081704 0.209999089537795 0  0.2639264840835795 0.2099987836082794 0  0.2713948035245176 0.2099985853023078 0  0.278863106524088 0.2099984307769962 0  0.2863314121741214 0.2099983009136611 0  0.2937997136566314 0.2099981872452971 0  0.3012680162091392 0.2099980849199908 0  0.3087363173533538 0.2099980008975234 0  0.3162046238077094 0.2099979220054747 0  0.3236729242635915 0.2099978492713135 0  0.3311412324411405 0.2099977823930784 0  0.3386095323629047 0.2099977207734974 0  0.3460778400493457 0.2099976608445367 0  0.3535461409441879 0.2099975962037554 0  0.3610144413010737 0.2099975620475545 0  0.3684827468614555 0.2099975227240685 0  0.3759510438051312 0.2099974811986678 0  0.3834193482269044 0.2099974423096954 0  0.3908876441668454 0.2099974041964084 0  0.3983559483072359 0.2099973677636323 0  0.4058242431577471 0.2099973315262522 0  0.4132925465259055 0.2099972925350358 0  0.4207608408819717 0.2099972447825035 0  0.4282291394838195 0.2099972263461229 0  0.4356974443803958 0.2099971992802883 0  0.4431657428355993 0.2099971716083784 0  0.4506340501100389 0.2099971421055336 0  0.4581023498770502 0.2099971157243892 0  0.4655706600268429 0.2099970903873431 0  0.4730389608354918 0.2099970668648641 0  0.4805072732479893 0.2099970447070021 0  0.4879755765380618 0.209997025519492 0  0.4954438935182879 0.2099970011669899 0  0.5029121988468611 0.2099969865769681 0  0.5103805158335037 0.2099969810303977 0  0.5178488200407773 0.2099969726200307 0  0.525317136197306 0.209996963509573 0  0.5327854404504893 0.2099969534810283 0  0.5402537572237515 0.2099969478092494 0  0.5477220624765456 0.2099969460561615 0  0.5551903783560774 0.2099969434034482 0  0.5626586844519662 0.2099969308672203 0  0.5701269833317811 0.2099969570318214 0  0.5775952915481787 0.2099969744564436 0  0.5850635896247937 0.2099969811464203 0  0.5925318905656666 0.2099969958252736 0  0.6000001816800312 0.2049970071750429 0  0.6000001633551648 0.1949970106871123 0  0.5925318557445004 0.1899969985825342 0  0.5850635578407227 0.1899969782193859 0  0.5775952488863465 0.1899969602052362 0  0.5701269478447816 0.1899969427853301 0  0.562658639869372 0.1899969185674316 0  0.5551903288537502 0.1899969260924945 0  0.5477220273820862 0.1899969246854263 0  0.5402537125759778 0.1899969239928995 0  0.5327854109257827 0.1899969268738329 0  0.5253170943200391 0.1899969322902384 0  0.5178487907215701 0.1899969394496213 0  0.5103804747041116 0.1899969475287495 0  0.5029121723704095 0.1899969576358586 0  0.495443854245174 0.18999697224871 0  0.4879755518721621 0.1899969914257822 0  0.4805072358177404 0.1899970134983038 0  0.4730389328047016 0.189997036927585 0  0.4655706178868252 0.1899970621341575 0  0.4581023171667569 0.1899970889825402 0  0.4506340050270521 0.1899971180444278 0  0.4431657046510307 0.189997148727291 0  0.4356973930680145 0.1899971805067198 0  0.4282290913539265 0.18999721111199 0  0.4207607822567874 0.1899972342598879 0  0.4132924754233802 0.18999728260162 0  0.4058241754273467 0.1899973254295187 0  0.3983558679771744 0.1899973645553099 0  0.3908875668928107 0.1899974041784054 0  0.3834192590458365 0.1899974440453507 0  0.3759509572815939 0.1899974846919932 0  0.36848264978273 0.1899975264981344 0  0.3610143489927337 0.189997566482617 0  0.3535460413382694 0.1899976031599267 0  0.3460777323867822 0.1899976670875017 0  0.3386094301041129 0.1899977284951776 0  0.3311411214683366 0.1899977908859296 0  0.3236728206818738 0.1899978574848386 0  0.3162045145077797 0.1899979299299439 0  0.3087362144376422 0.1899980072637782 0  0.3012679096982175 0.1899980902811261 0  0.293799607233666 0.1899981920137645 0  0.2863313028997938 0.1899983049230732 0  0.2788630002552001 0.1899984332551723 0  0.271394686804783 0.1899985908204853 0  0.2639263828706342 0.189998796219787 0  0.2564580780316149 0.1899990957356
[...]
<PointData  Vectors="f_30-0"> 
<DataArray  type="Float64"  Name="f_30-0"  NumberOfComponents="3" format="ascii">0.0000000000000000e+00 0.0000000000000000e+00 0.0000000000000000e+00  0.0000000000000000e+00 0.0000000000000000e+00 0.0000000000000000e+00  0.0000000000000000e+00 0.0000000000000000e+00 0.0000000000000000e+00  0.0000000000000000e+00 0.0000000000000000e+00 0.0000000000000000e+00  3.0948880750644274e-02 -9.4431397053393221e-02 0.0000000000000000e+00  7.7527528224203709e-02 -8.6277481279309301e-02 0.0000000000000000e+00  0.0000000000000000e+00 0.0000000000000000e+00 0.0000000000000000e+00  0.0000000000000000e+00 0.0000000000000000e+00 0.0000000000000000e+00  0.0000000000000000e+00 0.0000000000000000e+00 0.0000000000000000e+00  0.0000000000000000e+00 0.0000000000000000e+00 0.0000000000000000e+00  1.3013938063850228e-01 -2.0340350031219717e-01 0.0000000000000000e+00  0.0000000000000000e+00 0.0000000000000000e+00 0.0000000000000000e+00  0.0000000000000000e+00 0.0000000000000000e+00 0.0000000000000000e+00  0.0000000000000000e+00 0.0000000000000000e+00 0.0000000000000000e+00  0.0000000000000000e+00 0.0000000000000000e+00 0.0000000000000000e+00  0.0000000000000000e+00 0.0000000000000000e+00 0.0000000000000000e+00  0.0000000000000000e+00 0.0000000000000000e+00 0.0000000000000000e+00  0.0000000000000000e+00 0.0000000000000000e+00 0.0000000000000000e+00  0.0000000000000000e+00 0.0000000000000000e+00 0.0000000000000000e+00  0.0000000000000000e+00 0.0000000000000000e+00 0.0000000000000000e+00  0.0000000000000000e+00 0.0000000000000000e+00 0.0000000000000000e+00  0.0000000000000000e+00 0.0000000000000000e+00 0.0000000000000000e+00  0.0000000000000000e+00 0.0000000000000000e+00 0.0000000000000000e+00  0.0000000000000000e+00 0.0000000000000000e+00 0.0000000000000000e+00  0.0000000000000000e+00 0.0000000000000000e+00 0.0000000000000000e+00  0.0000000000000000e+00 0.0000000000000000e+00 0.0000000000000000e+00  0.0000000000000000e+00 0.0000000000000000e+00 0.0000000000000000e+00  0.0000000000000000e+00 0.0000000000000000e+00 0.0000000000000000e+00  0.0000000000000000e+00 0.0000000000000000e+00 0.0000000000000000e+00  0.0000000000000000e+00 0.0000000000000000e+00 0.0000000000000000e+00  0.0000000000000000e+00 0.0000000000000000e+00 0.0000000000000000e+00  0.0000000000000000e+00 0.0000000000000000e+00 0.0000000000000000e+00  0.0000000000000000e+00 0.0000000000000000e+00 0.0000000000000000e+00  0.0000000000000000e+00 0.0000000000000000e+00 0.0000000000000000e+00  0.0000000000000000e+00 0.0000000000000000e+00 0.0000000000000000e+00  0.0000000000000000e+00 0.0000000000000000e+00 0.0000000000000000e+00  0.0000000000000000e+00 0.0000000000000000e+00 0.0000000000000000e+00  0.0000000000000000e+00 0.0000000000000000e+00 0.0000000000000000e+00  0.0000000000000000e+00 0.0000000000000000e+00 0.0000000000000000e+00  0.0000000000000000e+00 0.0000000000000000e+00 0.0000000000000000e+00  0.0000000000000000e+00 0.0000000000000000e+00 0.0000000000000000e+00  0.0000000000000000e+00 0.0000000000000000e+00 0.0000000000000000e+00  0.0000000000000000e+00 0.0000000000000000e+00 0.0000000000000000e+00  0.0000000000000000e+00 0.0000000000000000e+00 0.0000000000000000e+00  0.0000000000000000e+00 0.0000000000000000e+00 0.0000000000000000e+00  0.0000000000000000e+00 0.0000000000000000e+00 0.0000000000000000e+00  0.0000000000000000e+00 0.0000000000000000e+00 0.0000000000000000e+00  0.0000000000000000e+00 0.0000000000000000e+00 0.0000000000000000e+00  0.0000000000000000e+00 0.0000000000000000e+00 0.0000000000000000e+00  0.0000000000000000e+00 0.0000000000000000e+00 0.0000000000000000e+00  0.0000000000000000e+00 0.0000000000000000e+00 0.0000000000000000e+00  0.0000000000000000e+00 0.0000000000000000e+00 0.0000000000000000e+00  0.0000000000000000e+00 0.0000000000000000e+00 0.0000000000000000e+00  0.0000000000000000e+00 0.0000000000000000e+00 0.0000000000000000e+00  0.0000000000000000e+00 0.0000000000000000e+00 0.0000000000000000e+00  0.0000000000000000e+00 0.0000000000000000e+00 0.0000000000000000e+00  0.0000000000000000e+00 0.0000000000000000e+00 0.0000000000000000e+00  0.0000000000000000e+00 0.0000000000000000e+00 0.0000000000000000e+00  0.0000000000000000e+00 0.0000000000000000e+00 0.0000000000000000e+00  0.0000000000000000e+00 0.0000000000000000e+00 0.0000000000000000e+00  0.0000000000000000e+00 0.0000000000000000e+00 0.0000000000000000e+00  0.0000000000000000e+00 0.0000000000000000e+00 0.0000000000000000e+00  8.4394104154756531e-09 2.8367376296847373e-09 0.0000000000000000e+00  -2.0511844525848672e-10 3.9814883958990441e-09 0.0000000000000000e+00  -8.6669480287479102e-09 3.2959872109545400e-09 0.0000000000000000e+00  0.0000000000000000e+00 0.0000000000000000e+00 0.0000000000000000e+00  0.0000000000000000e+00 0.0000000000000000e+00 0.0000000000000000e+00  0.0000000000000000e+00 0.0000000000000000e+00 0.0000000000000000e+00  0.0000000000000000e+00 0.0000000000000000e+00 0.0000000000000000e+00  0.0000000000000000e+00 0.0000000000000000e+00 0.0000000000000000e+00  0.0000000000000000e+00 0.0000000000000000e+00 0.0000000000000000e+00  0.0000000000000000e+00 0.0000000000000000e+00 0.0000000000000000e+00  0.0000000000000000e+00 0.0000000000000000e+00 0.0000000000000000e+00  0.0000000000000000e+00 0.0000000000000000e+00 0.0000000000000000e+00  0.0000000000000000e+00 0.0000000000000000e+00 0.0000000000000000e+00  0.0000000000000000e+00 0.0000000000000000e+00 0.0000000000000000e+00  0.0000000000000000e+00 0.0000000000000000e+00 0.0000000000000000e+00  0.0000000000000000e+00 0.0000000000000000e+00 0.0000000000000000e+00  0.0000000000000000e+00 0.0000000000000000e+00 0.0000000000000000e+00  0.0000000000000000e+00 0.0000000000000000e+00 0.0000000000000000e+00  0.0000000000000000e+00 0.0000000000000000e+00 0.0000000000000000e+00  0.0000000000000000e+00 0.0000000000000000e+00 0.0000000000000000e+00  0.0000000000000000e+00 0.0000000000000000e+00 0.0000000000000000e+00  0.0000000000000000e+00 0.0000000000000000e+00 0.0000000000000000e+00  0.0000000000000000e+00 0.0000000000000000e+00 0.0000000000000000e+00  0.0000000000000000e+00 0.0000000000000000e+00 0.0000000000000000e+00  0.0000000000000000e+00 0.0000000000000000e+00 0.0000000000000000e+00  0.0000000000000000e+00 0.0000000000000000e+00 0.0000000000000000e+00  0.0000000000000000e+00 0.0000000000000000e+00 0.0000000000000000e+00  0.0000000000000000e+00 0.0000000000000000e+00 0.0000000000000000e+00  0.0000000000000000e+00 0.0000000000000000e+00 0.0000000000000000e+00  0.0000000000000000e+00 0.0000000000000000e+00 0.0000000000000000e+00  0.0000000000000000e+00 0.0000000000000000e+00 0.0000000000000000e+00  0.0000000000000000e+00 0.0000000000000000e+00 0.0000000000000000e+00  0.0000000000000000e+00 0.0000000000000000e+00 0.0000000000000000e+00  0.0000000000000000e+00 0.0000000000000000e+00 0.0000000000000000e+00  0.0000000000000000e+00 0.0000000000000000e+00 0.0000000000000000e+00  0.0000000000000000e+00 0.0000000000000000e+00 0.0000000000000000e+00  0.0000000000000000e+00 0.0000000000000000e+00 0.0000000000000000e+00  0.0000000000000000e+00 0.0000000000000000e+00 0.0000000000000000e+00  0.0000000000000000e+00 0.0000000000000000e+00 0.0000000000000000e+00  0.0000000000000000e+00 0.0000000000000000e+00 0.0000000000000000e+00  0.0000000000000000e+00 0.0000000000000000e+00 0.0000000000000000e+00  0.0000000000000000e+00 0.0000000000000000e+00 0.0000000000000000e+00  0.0000000000000000e+00 0.0000000000000000e+00 0.0000000000000000e+00  0.0000000000000000e+00 0.0000000000000000e+00 0.0000000000000000e+00  0.0000000000000000e+00 0.0000000000000000e+00 0.0000000000000000e+00  0.0000000000000000e+00 0.0000000000000000e+00 0.0000000000000000e+00  0.0000000000000000e+00 0.0000000000000000e+00 0.0000000000000000e+00  0.0000000000000000e+00 0.0000000000000000e+00 0.0000000000000000e+00  0.0000000000000000e+00 0.0000000000000000e+00 0.0000000000000000e+00  0.0000000000000000e+00 0.0000000000000000e+00 0.0000000000000000e+00  0.0000000000000000e+00 0.0000000000000000e+00 0.0000000000000000e+00  0.0000000000000000e+00 0.0000000000000000e+00 0.0000000000000000e+00  0.0000000000000000e+00 0.0000000000000000e+00 0.0000000000000000e+00  0.0000000000000000e+00 0.0000000000000000e+00 0.0000000000000000e+00  0.0000000000000000e+00 0.0000000000000000e+00 0.0000000000000000e+00  0.0000000000000000e+00 0.0000000000000000e+00 0.0000000000000000e+00  0.0000000000000000e+00 0.0000000000000000e+00 0.0000000000000000e+00  0.0000000000000000e+00 0.0000000000000000e+00 0.0000000000000000e+00  0.0000000000000000e+00 0.0000000000000000e+00 0.0000000000000000e+00  0.0000000000000000e+00 0.0000000000000000e+00 0.0000000000000000e+00  0.0000000000000000e+00 0.0000000000000000e+00 0.0000000000000000e+00  0.0000000000000000e+00 0.0000000000000000e+00 0.0000000000000000e+00  0.0000000000000000e+00 0.0000000000000000e+00 0.0000000000000000e+00  0.0000000000000000e+00 0.0000000000000000e+00 0.0000000000000000e+00  0.0000000000000000e+00 0.0000000000000000e+00 0.0000000000000000e+00  0.0000000000000000e+00 0.0000000000000000e+00 0.0000000000000000e+00  0.0000000000000000e+00 0.0000000000000000e+00 0.0000000000000000e+00  0.0000000000000000e+00 0.0000000000000000e+00 0.0000000000000000e+00  0.0000000000000000e+00 0.0000000000000000e+00 0.0000000000000000e+00  0.0000000000000000e+00 0.0000000000000000e+00 0.0000000000000000e+00  0.0000000000000000e+00 0.0000000000000000e+00 0.0000000000000000e+00  0.0000000000000000e+00 0.0000000000000000e+00 0.0000000000000000e+00  0.0000000000000000e+00 0.0000000000000000e+00 0.0000000000000000e+00  0.0000000000000000e+00 0.0000000000000000e+00 0.0000000000000000e+00  0.0000000000000000e+00 0.0000000000000000e+00 0.0000000000000000e+00  0.0000000000000000e+00 0.0000000000000000e+00 0.0000000000000000e+00  0.0000000000000000e+00 0.0000000000000000e+00 0.0000000000000000e+00  0.0000000000000000e+00 0.0000000000000000e+00 0.0000000000000000e+00  0.0000000000000000e+00 0.0000000000000000e+00 0.0000000000000000e+00  0.0000000000000000e+00 0.0000000000000000e+00 0.0000000000000000e+00  0.0000000000000000e+00 0.0000000000000000e+00 0.0000000000000000e+00  1.1875023288618350e-01 5.1357917361636840e-01 0.0000000000000000e+00  9.3542593299185850e-02 4.5097385344051616e-01 0.0000000000000000e+00  1.5460191763239936e-01 3.3383528214483704e-01 0.0000000000000000e+00  6.8045395111574480e-02 1.7700843132508931e-01 0.0000000000000000e+00  7.7265247621208344e-02 8.5585046053128846e-02 0.0000000000000000e+00  3.5800817572935746e-02 -2.5724364734576743e-02 0.0000000000000000e+00  4.9957825110205620e-02 -9.3682016190445819e-02 0.0000000000000000e+00  -7.8751513524461993e-03 -1.5751313146943199e-01 0.0000000000000000e+00  3.9833389502747049e-02 -1.9687883285819346e-01 0.0000000000000000e+00  -1.5805517631402703e-02 -2.2108026612502577e-01 0.0000000000000000e+00  4.2942019041010498e-02 -2.6422379936647294e-01 0.0000000000000000e+00  -1.4610164502472102e-02 -2.6641773199184210e-01 0.0000000000000000e+00  6.1158060251331338e-02 -3.0917200240986320e-01 0.0000000000000000e+00  1.3405638148590200e-02 -3.2503441122497140e-01 0.0000000000000000e+00  5.8648960519153545e-03 -2.9939049666190704e-01 0.0000000000000000e+00  3.5268733779649931e-02 -2.6205687619710510e-01 0.0000000000000000e+00  -2.4608190337636312e-03 -2.8822897009774567e-01 0.0000000000000000e+00  3.0286404161333009e-02 -2.7043414698749452e-01 0.0000000000000000e+00  -1.7160108600304202e-02 -2.7802895420417173e-01 0.0000000000000000e+00  3.0215475711176113e-02 -2.9140612432565383e-01 0.0000000000000000e+00  -4.1535744765814286e-02 -2.8756657083043202e-01 0.0000000000000000e+00  3.8420792852993317e-02 -3.1369132866484367e-01 0.0000000000000000e+00  -3.9193828807678549e-02 -3.3438993179012322e-01 0.0000000000000000e+00  -6.1980700594742956e-02 -3.2936383930949487e-01 0.0000000000000000e+00  -2.7839287869110819e-02 -3.8976136635494918e-01 0.0000000000000000e+00  -6.3622291491016308e-02 -3.7582232671276061e-01 0.0000000000000000e+00  -3.3000270145578346e-02 -4.3900386344099229e-01 0.0000000000000000e+00  -8.8273549798553730e-02 -4.5103875140269994e-01 0.0000000000000000e+00  -1.0761727049929512e-03 -4.6936734134305874e-01 0.0000000000000000e+00  -1.0224844276241786e-01 -4.7832953017562807e-01 0.0000000000000000e+00  3.8059637865692215e-03 -5.0831616846128014e-01 0.0000000000000000e+00  -9.1263568686092686e-02 -4.6268513050152882e-01 0.0000000000000000e+00  2.6065739414404755e-02 -6.3315003033365536e-01 0.0000000000000000e+00  -5.0756145684237489e-02 -6.2991095117430906e-01 0.0000000000000000e+00  6.3561213687643600e-02 -4.7222816213863844e-01 0.0000000000000000e+00  -3.2533081730156767e-02 -4.5227215935883469e-01 0.0000000000000000e+00  6.8096367325084131e-02 -4.4980495197850562e-01 0.0000000000000000e+00  -3.6040192623454613e-02 -5.2295866608438457e-01 0.0000000000000000e+00  1.0009021680606613e-01 -5.1958699767221062e-01 0.0000000000000000e+00  1.0381605127328280e-02 -4.7042556753080522e-01 0.0000000000000000e+00  1.2083504783795126e-01 -4.0191970497329621e-01 0.0000000000000000e+00  7.2873709415941623e-02 -4.0124909292480676e-01 0.0000000000000000e+00  3.3361776759827343e-02 -3.4379386197842959e-01 0.0000000000000000e+00  1.2376342884401635e-01 -2.4329614173044095e-01 0.0000000000000000e+00  8.2883673496518456e-02 -3.6130917750125213e-01 0.0000000000000000e+00  2.0917789516145993e-01 -3.4432863239948369e-01 0.0000000000000000e+00  2.0105904372867114e-01 -2.4112837142836602e-01 0.0000000000000000e+00  1.6155522281785763e-02 -1.6096857812566617e-01 0.0000000000000000e+00  3.8265824024071027e-02 -1.8488677683611854e-01 0.0000000000000000e+00  1.1622786935762916e-01 -2.5617345023638755e-01 0.0000000000000000e+00  3.1709408342018242e-02 -2.9062586544477043e-01 0.0000000000000000e+00  1.0161603076716635e-01 -3.5464500940218735e-01 0.0000000000000000e+00  5.1654950437536248e-02 -3.5084874577981567e-01 0.0000000000000000e+00  -6.1258999906215758e-03 -3.9558735260346850e-01 0.0000000000000000e+00  1.0659831337129361e-01 -4.0625276446396030e-01 0.0000000000000000e+00  -2.4345245606001598e-02 -4.3043763581812788e-01 0.0000000000000000e+00  8.6598996801645470e-02 -4.4412450413202570e-01 0.0000000000000000e+00  -4.2782899608116924e-02 -4.4613635790882572e-01 0.0000000000000000e+00  7.8698865834377421e-02 -4.4970945156748249e-01 0.0000000000000000e+00  -3.8097318833731610e-02 -4.6314255624531575e-01 0.0000000000000000e+00  7.8790808081080077e-02 -4.8334402530448922e-01 0.0000000000000000e+00  -7.5597543207862633e-02 -4.8406241142001361e-01 0.0000000000000000e+00  3.9656123888217709e-02 -4.6642167435083082e-01 0.0000000000000000e+00  -8.1498788231639488e-02 -4.5015353874913921e-01 0.0000000000000000e+00  3.3768851725400659e-02 -4.3428157233594439e-01 0.0000000000000000e+00  -8.4268815333347333e-02 -4.1888908840200639e-01 0.0000000000000000e+00  2.3238729638259476e-02 -3.9635578244599579e-01 0.0000000000000000e+00  -8.0631020746633530e-02 -3.8025556554793843e-01 0.0000000000000000e+00  1.9088970267419545e-02 -3.6397896261035562e-01 0.0000000000000000e+00  -7.3713636433623261e-02 -3.4425434014903072e-01 0.0000000000000000e+00  1.7726017051668295e-02 -3.3851369191665870e-01 0.0000000000000000e+00  -3.1436748564664246e-02 -3.1847742542723567e-01 0.0000000000000000e+00  -5.9164104809555113e-02 -3.1850426436807949e-01 0.0000000000000000e+00  -1.5476525467072633e-03 -2.8599876672537428e-01 0.0000000000000000e+00  -4.8462933188906002e-02 -2.9298349425299658e-01 0.0000000000000000e+00  6.6179982122084166e-03 -2.9230854591392486e-01 0.0000000000000000e+00  -4.3517401668021753e-02 -2.9260180640220562e-01 0.0000000000000000e+00  5.7698169304137388e-03 -2.9043763696773089e-01 0.0000000000000000e+00  -3.8622208292176767e-02 -2.8322517118834301e-01 0.0000000000000000e+00  1.2002310277127401e-02 -2.9655128210454668e-01 0.0000000000000000e+00  -9.7217334241715449e-03 -2.9577174790211391e-01 0.0000000000000000e+00  -7.4676157473028124e-02 -3.0593027947674040e-01 0.0000000000000000e+00  -1.4269583067068946e-03 -2.7126874977773535e-01 0.0000000000000000e+00  -8.0568428198072861e-02 -2.6009566910864140e-01 0.0000000000000000e+00  -1.3284795678866493e-02 -2.2935399915128563e-01 0.0000000000000000e+00  -7.5273662911457595e-02 -1.9875445356505914e-01 0.0000000000000000e+00  -1.7166921590195845e-02 -1.5807764078123618e-01 0.0000000000000000e+00  -5.7622767684493585e-02 -1.0447724373764676e-01 0.0000000000000000e+00  -3.0306255903491883e-02 -3.2594355500885470e-02 0.0000000000000000e+00  -4.4659080065972898e-02 7.2066652803386672e-02 0.0000000000000000e+00  -2.3993003023005479e-03 1.3669662637016511e-01 0.0000000000000000e+00  -1.0697676809620685e-01 3.3287537648593729e-01 0.0000000000000000e+00  -1.6452956932223231e-01 5.7857700960109260e-01 0.0000000000000000e+00  -1.8925441007801738e-01 5.2802058976225208e-01 0.0000000000000000e+00  -1.0602107229296286e-02 -2.9829957504728222e-01 0.0000000000000000e+00  -1.3725235494915573e-02 1.8430876847204797e-01 0.0000000000000000e+00  5.0469257896351384e-03 2.4225722573939160e-01 0.0000000000000000e+00  1.0703429784965116e-02 3.3812599108809721e-01 0.0000000000000000e+00  -3.4470446569504501e-02 -2.0392416379542441e-01 0.0000000000000000e+00  1.2691324274735735e-02 3.7385987428615619e-01 0.0000000000000000e+00  8.9068722673871850e-03 -4.0120253586777933e-02 0.0000000000000000e+00  1.3013173666825589e-02 3.6624794889191598e-01 0.0000000000000000e+00  4.8638008386358081e-03 1.4217784506757356e-01 0.0000000000000000e+00  -4.3144596151616115e-04 1.9275005661737635e-01 0.0000000000000000e+00  -3.3131204545943656e-02 4.0190836320834217e-01 0.0000000000000000e+00  5.4339518239543416e-03 2.3074336803969850e-01 0.0000000000000000e+00  -1.2856942632985131e-02 3.6689697611875682e-01 0.0000000000000000e+00  -3.9054841551983861e-03 2.1397468699610761e-01 0.0000000000000000e+00  2.6203434480733960e-04 2.2726660145499353e-01 0.0000000000000000e+00  -9.6570385148348065e-03 3.4348019191883938e-01 0.0000000000000000e+00  2.5310341986464664e-02 4.0114647110012147e-01 0.0000000000000000e+00  -6.5529987556607380e-03 2.3120719261345068e-01 0.0000000000000000e+00  -4.1244870096269221e-03 3.1034723987596974e-01 0.0000000000000000e+00  -1.4264615393600518e-03 2.3622416865156004e-01 0.0000000000000000e+00  -1.1128868588435533e-02 2.7660577061834812e-01 0.0000000000000000e+00  6.1565587322982961e-03 2.1176838869725917e-01 0.0000000000000000e+00  -1.2615094261198860e-03 1.9393912843764755e-01 0.0000000000000000e+00  -7.9475724379618404e-03 2.5569444803805103e-01 0.0000000000000000e+00  5.6127507311088311e-03 6.7734218993483419e-02 0.0000000000000000e+00  3.9984752065486875e-03 1.7665915403281898e-01 0.0000000000000000e+00  -6.6691248760245667e-02 -2.6686548076390415e-01 0.0000000000000000e+00  -1.8012404085247283e-03 2.5335833570594152e-01 0.0000000000000000e+00  -1.4058698149986459e-02 2.6276491834908661e-01 0.0000000000000000e+00  3.1406514910404380e-02 -7.2417860450107716e-02 0.0000000000000000e+00  1.2558135572708552e-02 1.2356830082550720e-01 0.0000000000000000e+00  7.8136141819557927e-05 2.6076006885048902e-01 0.0000000000000000e+00  -2.3222204007944092e-03 2.5452828449115517e-01 0.0000000000000000e+00  -1.1100867366605980e-02 1.6267653864143908e-01 0.0000000000000000e+00  2.9212637476850232e-03 2.4197406497354629e-01 0.0000000000000000e+00  1.2372200252101447e-02 1.4329072365064716e-01 0.0000000000000000e+00  -1.1665360930776596e-03 1.6374729466244606e-01 0.0000000000000000e+00  3.8307859306827935e-04 2.3447145534922262e-01 0.0000000000000000e+00  -1.5240118530680067e-03 3.1365819213686535e-01 0.0000000000000000e+00  1.0323295307064391e-02 1.8438612702073690e-01 0.0000000000000000e+00  4.8553174194370281e-03 1.9679368842304809e-01 0.0000000000000000e+00  -4.6996547519215670e-02 -2.8937322969702178e-01 0.0000000000000000e+00  9.5974819976798090e-02 -2.6062802399530877e-01 0.0000000000000000e+00  -1.1500713197718927e-01 1.4253431026878224e-01 0.0000000000000000e+00  2.1747717434066803e-02 -2.6683657112042392e-01 0.000