<?xml version="1.0"?>
<VTKFile type="UnstructuredGrid"  version="0.1"  >
<UnstructuredGrid>
<Piece  NumberOfPoints="1419" NumberOfCells="2698">
<Points>
<DataArray  type="Float64"  NumberOfComponents="3"  format="ascii">-7.322443125525138e-10 -1.864953209129063e-07 0  9.99243009485963e-10 0.4099998128175379 0  2.50000000029953 -2.73859660519959e-07 0  2.50000000029953 0.4099997261403422 0  0.6000000004145568 0.1899997141820249 0  0.6000000002645816 0.2099997150529872 0  0.25 0.2 0  0.1500000001088402 0.1999998147599982 0  0.2489897948556636 0.21 0  0.2489897948556636 0.19 0  0.6000000004222523 0.1999997126466139 0  9.802217570673576e-10 0.3807140985826017 0  9.259375983250735e-10 0.3514283844348203 0  8.34279044626622e-10 0.3221426703533244 0  7.045917266402245e-10 0.2928569562931675 0  5.431066789404038e-10 0.263571242220053 0  3.558319506855487e-10 0.2342855281110801 0  1.499945861867159e-10 0.2049998139318574 0  -5.734169128464016e-11 0.1757140996887761 0  -2.511572018480728e-10 0.146428385376123 0  -4.216738845327038e-10 0.1171426710073706 0  -5.554202046367818e-10 0.08785695660419306 0  -6.544776983829275e-10 0.05857124219754425 0  -7.134444304317294e-10 0.02928552782175453 0  0.03015443685211454 -1.865304963897679e-07 0  0.06140001904861096 -1.866576357113584e-07 0  0.09377623983976097 -1.869446067622921e-07 0  0.1273239946586197 -1.875095985748032e-07 0  0.1620856847348812 -1.885645761160664e-07 0  0.1981052417944844 -1.906294081891803e-07 0  0.2354281823396838 -1.944806642395453e-07 0  0.2741016557190253 -2.006211024143274e-07 0  0.3141745501691315 -2.091368143218548e-07 0  0.3556974907355786 -2.197650433728596e-07 0  0.3987229525700571 -2.313425173295649e-07 0  0.4433053041660355 -2.426900449548532e-07 0  0.4895008749700821 -2.529541626626892e-07 0  0.5373680603609856 -2.612431731839692e-07 0  0.5869673340500569 -2.670759653480727e-07 0  0.6383613676114454 -2.707617855115484e-07 0  0.6916151139292021 -2.726300324319059e-07 0  0.7467958597280527 -2.734595071495945e-07 0  0.8039733466060495 -2.737973055403483e-07 0  0.8632198141964459 -2.73908015173154e-07 0  0.9246101329534798 -2.739258952705545e-07 0  0.9882218813727147 -2.73913248781075e-07 0  1.054135445845965 -2.738974215732385e-07 0  1.122434100834869 -2.738840882338221e-07 0  1.193204177436663 -2.738743886248724e-07 0  1.266535090176723 -2.738681860745673e-07 0  1.342519516344614 -2.738645295438508e-07 0  1.421253448802742 -2.738623619734504e-07 0  1.502836389405418 -2.738610893258974e-07 0  1.587371440058169 -2.738604035979738e-07 0  1.674965419076802 -2.738600405326061e-07 0  1.765729002125024 -2.73859847263821e-07 0  1.859776909179587 -2.738597522396097e-07 0  1.95722797778658 -2.738597024097491e-07 0  2.058205330169467 -2.738596797238883e-07 0  2.162836591489478 -2.738596681459677e-07 0  2.271253957590393 -2.738596632398444e-07 0  2.383594447102954 -2.738596611401836e-07 0  2.50000000029953 0.1024997261401011 0  2.500000000299529 0.2049997261398151 0  2.50000000029953 0.3074997261400601 0  2.383594447103186 0.4099997261403429 0  2.271253957590845 0.409999726140345 0  2.16283659149013 0.4099997261403501 0  2.05820533017031 0.4099997261403612 0  1.957227977787608 0.4099997261403837 0  1.859776909180801 0.4099997261404359 0  1.765729002126434 0.4099997261405306 0  1.674965419078452 0.4099997261407319 0  1.58737144006014 0.4099997261410961 0  1.502836389407869 0.4099997261417901 0  1.421253448805989 0.4099997261431318 0  1.342519516349138 0.4099997261454126 0  1.266535090183367 0.4099997261494038 0  1.193204177447032 0.4099997261569301 0  1.122434100851466 0.4099997261704514 0  1.054135445872175 0.4099997261931085 0  0.988221881415152 0.4099997262381321 0  0.9246101330207058 0.4099997263210475 0  0.8632198143032298 0.4099997264802107 0  0.8039733467743686 0.4099997267988534 0  0.746795859993009 0.4099997274371995 0  0.6916151143455679 0.4099997286735909 0  0.638361368276499 0.409999731045547 0  0.5869673351091437 0.4099997350237389 0  0.5373680619718325 0.409999740981539 0  0.4895008772622562 0.4099997491215478 0  0.4433053071577391 0.4099997588788818 0  0.3987229561554027 0.4099997695514794 0  0.3556974947117867 0.4099997803212057 0  0.3141745542842975 0.4099997902122202 0  0.2741016597093013 0.4099997983550354 0  0.2354281860180187 0.4099998041831484 0  0.1981052450538281 0.4099998080056771 0  0.162085687554429 0.4099998102441517 0  0.1273239970847704 0.4099998114896047 0  0.09377624195327249 0.4099998122055531 0  0.06140002094413721 0.4099998125768318 0  0.03015443862077988 0.4099998127694757 0  0.2497468076502589 0.2050254481002335 0  0.2497468076502614 0.1949745518997913 0  0.246996523043548 0.1829316135605829 0  0.2439893710065051 0.17623151237874 0  0.2400332121847251 0.1700441930130441 0  0.235213394771925 0.1645031307614631 0  0.2296338992783626 0.1597278621500314 0  0.2234150952298314 0.1558214054670904 0  0.2166911443215745 0.1528680360076689 0  0.2096071060665816 0.1509314679317952 0  0.2023158083553511 0.1500534793486024 0  0.1949745503861544 0.1502530115113333 0  0.1877417091934201 0.151525759509245 0  0.1807733228644695 0.153844265565108 0  0.1742197242671412 0.1571585111155892 0  0.1682222978116685 0.1613969960621568 0  0.1629104293112555 0.1664682811385674 0  0.1583987146448444 0.1722629606815076 0  0.1547844875413675 0.1786560228187721 0  0.1521457197222019 0.1855095464681883 0  0.1505393387973097 0.1926756767482759 0  0.1505393391169473 0.207323952812149 0  0.1521457203646268 0.2144900832187183 0  0.1547844885000827 0.2213436070874275 0  0.1583987159253246 0.2277366695642544 0  0.1629104309091562 0.233531349589045 0  0.1682222997342265 0.2386026353607159 0  0.1742197265088214 0.2428411212425489 0  0.1807733254319466 0.2461553680907633 0  0.1877417120884425 0.2484738759310458 0  0.1949745536125057 0.2497466263888122 0  0.2023158119114465 0.2499461618048731 0  0.2096071099621465 0.2490681777674183 0  0.2166911485496347 0.2471316156828713 0  0.2234150997924383 0.2441782546157367 0  0.2296339041583092 0.2402718093599127 0  0.2352133999298885 0.2354965570147752 0  0.2400332175277995 0.2299555177315029 0  0.2439893762776645 0.2237682352420125 0  0.2469965275503261 0.2170681986847487 0  0.2564581002862691 0.2099999063838042 0  0.2639264034797227 0.2099998740440295 0  0.2713947059264235 0.2099998537385598 0  0.2788630088023343 0.2099998392104932 0  0.2863313108469926 0.2099998278225707 0  0.2937996135421917 0.2099998183278091 0  0.3012679155170467 0.2099998096677345 0  0.308736217282275 0.2099998039995706 0  0.3162045197840096 0.2099997984606288 0  0.3236728215285604 0.2099997933140719 0  0.331141124017817 0.2099997886870469 0  0.3386094257469799 0.2099997844120627 0  0.3460777280856085 0.2099997803273973 0  0.3535460299358427 0.2099997759765163 0  0.3610143318625635 0.2099997731525003 0  0.3684826341952798 0.2099997700247187 0  0.3759509360364939 0.2099997668853675 0  0.3834192383957251 0.2099997638754448 0  0.390887540244591 0.2099997609741875 0  0.3983558426258787 0.2099997582151913 0  0.4058241444541776 0.2099997554609321 0  0.4132924467828212 0.209999752644305 0  0.4207607486518836 0.2099997494221535 0  0.4282290506059473 0.2099997474799885 0  0.4356973529136392 0.2099997451894439 0  0.4431656548256731 0.209999742763769 0  0.450633957155027 0.2099997403280917 0  0.4581022590161762 0.2099997379232269 0  0.4655705613588345 0.209999735541835 0  0.473038863167758 0.2099997331890516 0  0.480507165532621 0.2099997308547376 0  0.4879754673287969 0.2099997285196242 0  0.4954437697045633 0.209999726233726 0  0.5029120713800975 0.2099997240145693 0  0.5103803737684703 0.2099997218163133 0  0.5178486754736928 0.2099997197130069 0  0.5253169780958663 0.2099997176240211 0  0.5327852796715481 0.2099997155962637 0  0.5402535821931241 0.2099997137005401 0  0.5477218837034787 0.2099997119629582 0  0.5551901863439083 0.2099997098742901 0  0.5626584879234863 0.2099997069771831 0  0.570126789658317 0.2099997083768159 0  0.577595092951839 0.2099997091116001 0  0.5850633946520362 0.2099997102187271 0  0.5925316977320387 0.2099997126947749 0  0.6000000007823024 0.2049997136436639 0  0.599999999960605 0.1949997135392623 0  0.5925316986428319 0.1899997108983549 0  0.5850633972977554 0.1899997082182096 0  0.5775950943809572 0.189999706863234 0  0.5701267930026493 0.1899997061389095 0  0.5626584902948487 0.1899997047543684 0  0.5551901873915774 0.1899997074845121 0  0.5477218856032134 0.1899997092043719 0  0.5402535825465504 0.1899997108103395 0  0.5327852807498757 0.1899997125957712 0  0.5253169777079811 0.1899997145410988 0  0.5178486756937619 0.1899997166368464 0  0.5103803727513185 0.1899997188352291 0  0.502912070792355 0.1899997211214703 0  0.495443767947376 0.18999972344187 0  0.4879754659430803 0.1899997257955941 0  0.4805071631316596 0.1899997281911791 0  0.4730388610129309 0.1899997306332815 0  0.4655705582500074 0.1899997331289822 0  0.4581022561902299 0.1899997356648446 0  0.4506339534996591 0.1899997382252097 0  0.4431656514170673 0.1899997408178039 0  0.43569734871817 0.1899997434405333 0  0.4282290465358322 0.1899997460033245 0  0.4207607439257349 0.1899997481711601 0  0.4132924414038104 0.1899997516031705 0  0.4058241392822424 0.1899997546985858 0  0.3983558367260793 0.1899997576233548 0  0.3908875345717728 0.189999760607037 0  0.3834192320042893 0.1899997636544621 0  0.3759509298268155 0.189999766783184 0  0.3684826272693858 0.1899997700266574 0  0.3610143251455 0.1899997731608362 0  0.3535460225882876 0.1899997760520049 0  0.3460777199583364 0.1899997805233831 0  0.3386094178357087 0.1899997848147056 0  0.3311411151737597 0.1899997891709117 0  0.3236728131605155 0.1899997938525859 0  0.3162045104955227 0.1899997989977864 0  0.3087362084988183 0.1899998044404649 0  0.3012679057560988 0.1899998100554667 0  0.2937996032307033 0.1899998186826089 0  0.2863313014400474 0.1899998282419416 0  0.2788629989972433 0.1899998396026004 0  0.2713946973504596 0.1899998539847759 0  0.2639263952923795 0.1899998742709175 0  0.2564580939618826 0.189999906596
[...]
<PointData  Vectors="f_30-0"> 
<DataArray  type="Float64"  Name="f_30-0"  NumberOfComponents="3" format="ascii">0.0000000000000000e+00 0.0000000000000000e+00 0.0000000000000000e+00  0.0000000000000000e+00 0.0000000000000000e+00 0.0000000000000000e+00  0.0000000000000000e+00 0.0000000000000000e+00 0.0000000000000000e+00  0.0000000000000000e+00 0.0000000000000000e+00 0.0000000000000000e+00  7.1921721380695672e-03 -1.0032285812884895e-02 0.0000000000000000e+00  -6.1233002299192806e-03 -8.5372842269208406e-03 0.0000000000000000e+00  0.0000000000000000e+00 0.0000000000000000e+00 0.0000000000000000e+00  0.0000000000000000e+00 0.0000000000000000e+00 0.0000000000000000e+00  0.0000000000000000e+00 0.0000000000000000e+00 0.0000000000000000e+00  0.0000000000000000e+00 0.0000000000000000e+00 0.0000000000000000e+00  4.1997088971348351e-03 -3.5025019574358641e-02 0.0000000000000000e+00  0.0000000000000000e+00 0.0000000000000000e+00 0.0000000000000000e+00  0.0000000000000000e+00 0.0000000000000000e+00 0.0000000000000000e+00  0.0000000000000000e+00 0.0000000000000000e+00 0.0000000000000000e+00  0.0000000000000000e+00 0.0000000000000000e+00 0.0000000000000000e+00  0.0000000000000000e+00 0.0000000000000000e+00 0.0000000000000000e+00  0.0000000000000000e+00 0.0000000000000000e+00 0.0000000000000000e+00  0.0000000000000000e+00 0.0000000000000000e+00 0.0000000000000000e+00  0.0000000000000000e+00 0.0000000000000000e+00 0.0000000000000000e+00  0.0000000000000000e+00 0.0000000000000000e+00 0.0000000000000000e+00  0.0000000000000000e+00 0.0000000000000000e+00 0.0000000000000000e+00  0.0000000000000000e+00 0.0000000000000000e+00 0.0000000000000000e+00  0.0000000000000000e+00 0.0000000000000000e+00 0.0000000000000000e+00  0.0000000000000000e+00 0.0000000000000000e+00 0.0000000000000000e+00  0.0000000000000000e+00 0.0000000000000000e+00 0.0000000000000000e+00  0.0000000000000000e+00 0.0000000000000000e+00 0.0000000000000000e+00  0.0000000000000000e+00 0.0000000000000000e+00 0.0000000000000000e+00  0.0000000000000000e+00 0.0000000000000000e+00 0.0000000000000000e+00  0.0000000000000000e+00 0.0000000000000000e+00 0.0000000000000000e+00  0.0000000000000000e+00 0.0000000000000000e+00 0.0000000000000000e+00  0.0000000000000000e+00 0.0000000000000000e+00 0.0000000000000000e+00  0.0000000000000000e+00 0.0000000000000000e+00 0.0000000000000000e+00  0.0000000000000000e+00 0.0000000000000000e+00 0.0000000000000000e+00  0.0000000000000000e+00 0.0000000000000000e+00 0.0000000000000000e+00  0.0000000000000000e+00 0.0000000000000000e+00 0.0000000000000000e+00  0.0000000000000000e+00 0.0000000000000000e+00 0.0000000000000000e+00  0.0000000000000000e+00 0.0000000000000000e+00 0.0000000000000000e+00  0.0000000000000000e+00 0.0000000000000000e+00 0.0000000000000000e+00  0.0000000000000000e+00 0.0000000000000000e+00 0.0000000000000000e+00  0.0000000000000000e+00 0.0000000000000000e+00 0.0000000000000000e+00  0.0000000000000000e+00 0.0000000000000000e+00 0.0000000000000000e+00  0.0000000000000000e+00 0.0000000000000000e+00 0.0000000000000000e+00  0.0000000000000000e+00 0.0000000000000000e+00 0.0000000000000000e+00  0.0000000000000000e+00 0.0000000000000000e+00 0.0000000000000000e+00  0.0000000000000000e+00 0.0000000000000000e+00 0.0000000000000000e+00  0.0000000000000000e+00 0.0000000000000000e+00 0.0000000000000000e+00  0.0000000000000000e+00 0.0000000000000000e+00 0.0000000000000000e+00  0.0000000000000000e+00 0.0000000000000000e+00 0.0000000000000000e+00  0.0000000000000000e+00 0.0000000000000000e+00 0.0000000000000000e+00  0.0000000000000000e+00 0.0000000000000000e+00 0.0000000000000000e+00  0.0000000000000000e+00 0.0000000000000000e+00 0.0000000000000000e+00  0.0000000000000000e+00 0.0000000000000000e+00 0.0000000000000000e+00  0.0000000000000000e+00 0.0000000000000000e+00 0.0000000000000000e+00  0.0000000000000000e+00 0.0000000000000000e+00 0.0000000000000000e+00  0.0000000000000000e+00 0.0000000000000000e+00 0.0000000000000000e+00  0.0000000000000000e+00 0.0000000000000000e+00 0.0000000000000000e+00  0.0000000000000000e+00 0.0000000000000000e+00 0.0000000000000000e+00  0.0000000000000000e+00 0.0000000000000000e+00 0.0000000000000000e+00  0.0000000000000000e+00 0.0000000000000000e+00 0.0000000000000000e+00  0.0000000000000000e+00 0.0000000000000000e+00 0.0000000000000000e+00  0.0000000000000000e+00 0.0000000000000000e+00 0.0000000000000000e+00  0.0000000000000000e+00 0.0000000000000000e+00 0.0000000000000000e+00  1.0626513066658989e-09 5.2440782161961877e-10 0.0000000000000000e+00  -5.0832630047776417e-12 6.5099665464207493e-10 0.0000000000000000e+00  -1.3791212527905379e-09 5.4008434460276769e-10 0.0000000000000000e+00  0.0000000000000000e+00 0.0000000000000000e+00 0.0000000000000000e+00  0.0000000000000000e+00 0.0000000000000000e+00 0.0000000000000000e+00  0.0000000000000000e+00 0.0000000000000000e+00 0.0000000000000000e+00  0.0000000000000000e+00 0.0000000000000000e+00 0.0000000000000000e+00  0.0000000000000000e+00 0.0000000000000000e+00 0.0000000000000000e+00  0.0000000000000000e+00 0.0000000000000000e+00 0.0000000000000000e+00  0.0000000000000000e+00 0.0000000000000000e+00 0.0000000000000000e+00  0.0000000000000000e+00 0.0000000000000000e+00 0.0000000000000000e+00  0.0000000000000000e+00 0.0000000000000000e+00 0.0000000000000000e+00  0.0000000000000000e+00 0.0000000000000000e+00 0.0000000000000000e+00  0.0000000000000000e+00 0.0000000000000000e+00 0.0000000000000000e+00  0.0000000000000000e+00 0.0000000000000000e+00 0.0000000000000000e+00  0.0000000000000000e+00 0.0000000000000000e+00 0.0000000000000000e+00  0.0000000000000000e+00 0.0000000000000000e+00 0.0000000000000000e+00  0.0000000000000000e+00 0.0000000000000000e+00 0.0000000000000000e+00  0.0000000000000000e+00 0.0000000000000000e+00 0.0000000000000000e+00  0.0000000000000000e+00 0.0000000000000000e+00 0.0000000000000000e+00  0.0000000000000000e+00 0.0000000000000000e+00 0.0000000000000000e+00  0.0000000000000000e+00 0.0000000000000000e+00 0.0000000000000000e+00  0.0000000000000000e+00 0.0000000000000000e+00 0.0000000000000000e+00  0.0000000000000000e+00 0.0000000000000000e+00 0.0000000000000000e+00  0.0000000000000000e+00 0.0000000000000000e+00 0.0000000000000000e+00  0.0000000000000000e+00 0.0000000000000000e+00 0.0000000000000000e+00  0.0000000000000000e+00 0.0000000000000000e+00 0.0000000000000000e+00  0.0000000000000000e+00 0.0000000000000000e+00 0.0000000000000000e+00  0.0000000000000000e+00 0.0000000000000000e+00 0.0000000000000000e+00  0.0000000000000000e+00 0.0000000000000000e+00 0.0000000000000000e+00  0.0000000000000000e+00 0.0000000000000000e+00 0.0000000000000000e+00  0.0000000000000000e+00 0.0000000000000000e+00 0.0000000000000000e+00  0.0000000000000000e+00 0.0000000000000000e+00 0.0000000000000000e+00  0.0000000000000000e+00 0.0000000000000000e+00 0.0000000000000000e+00  0.0000000000000000e+00 0.0000000000000000e+00 0.0000000000000000e+00  0.0000000000000000e+00 0.0000000000000000e+00 0.0000000000000000e+00  0.0000000000000000e+00 0.0000000000000000e+00 0.0000000000000000e+00  0.0000000000000000e+00 0.0000000000000000e+00 0.0000000000000000e+00  0.0000000000000000e+00 0.0000000000000000e+00 0.0000000000000000e+00  0.0000000000000000e+00 0.0000000000000000e+00 0.0000000000000000e+00  0.0000000000000000e+00 0.0000000000000000e+00 0.0000000000000000e+00  0.0000000000000000e+00 0.0000000000000000e+00 0.0000000000000000e+00  0.0000000000000000e+00 0.0000000000000000e+00 0.0000000000000000e+00  0.0000000000000000e+00 0.0000000000000000e+00 0.0000000000000000e+00  0.0000000000000000e+00 0.0000000000000000e+00 0.0000000000000000e+00  0.0000000000000000e+00 0.0000000000000000e+00 0.0000000000000000e+00  0.0000000000000000e+00 0.0000000000000000e+00 0.0000000000000000e+00  0.0000000000000000e+00 0.0000000000000000e+00 0.0000000000000000e+00  0.0000000000000000e+00 0.0000000000000000e+00 0.0000000000000000e+00  0.0000000000000000e+00 0.0000000000000000e+00 0.0000000000000000e+00  0.0000000000000000e+00 0.0000000000000000e+00 0.0000000000000000e+00  0.0000000000000000e+00 0.0000000000000000e+00 0.0000000000000000e+00  0.0000000000000000e+00 0.0000000000000000e+00 0.0000000000000000e+00  0.0000000000000000e+00 0.0000000000000000e+00 0.0000000000000000e+00  0.0000000000000000e+00 0.0000000000000000e+00 0.0000000000000000e+00  0.0000000000000000e+00 0.0000000000000000e+00 0.0000000000000000e+00  0.0000000000000000e+00 0.0000000000000000e+00 0.0000000000000000e+00  0.0000000000000000e+00 0.0000000000000000e+00 0.0000000000000000e+00  0.0000000000000000e+00 0.0000000000000000e+00 0.0000000000000000e+00  0.0000000000000000e+00 0.0000000000000000e+00 0.0000000000000000e+00  0.0000000000000000e+00 0.0000000000000000e+00 0.0000000000000000e+00  0.0000000000000000e+00 0.0000000000000000e+00 0.0000000000000000e+00  0.0000000000000000e+00 0.0000000000000000e+00 0.0000000000000000e+00  0.0000000000000000e+00 0.0000000000000000e+00 0.0000000000000000e+00  0.0000000000000000e+00 0.0000000000000000e+00 0.0000000000000000e+00  0.0000000000000000e+00 0.0000000000000000e+00 0.0000000000000000e+00  0.0000000000000000e+00 0.0000000000000000e+00 0.0000000000000000e+00  0.0000000000000000e+00 0.0000000000000000e+00 0.0000000000000000e+00  0.0000000000000000e+00 0.0000000000000000e+00 0.0000000000000000e+00  0.0000000000000000e+00 0.0000000000000000e+00 0.0000000000000000e+00  0.0000000000000000e+00 0.0000000000000000e+00 0.0000000000000000e+00  0.0000000000000000e+00 0.0000000000000000e+00 0.0000000000000000e+00  0.0000000000000000e+00 0.0000000000000000e+00 0.0000000000000000e+00  0.0000000000000000e+00 0.0000000000000000e+00 0.0000000000000000e+00  0.0000000000000000e+00 0.0000000000000000e+00 0.0000000000000000e+00  0.0000000000000000e+00 0.0000000000000000e+00 0.0000000000000000e+00  0.0000000000000000e+00 0.0000000000000000e+00 0.0000000000000000e+00  0.0000000000000000e+00 0.0000000000000000e+00 0.0000000000000000e+00  0.0000000000000000e+00 0.0000000000000000e+00 0.0000000000000000e+00  0.0000000000000000e+00 0.0000000000000000e+00 0.0000000000000000e+00  0.0000000000000000e+00 0.0000000000000000e+00 0.0000000000000000e+00  1.5977171756709097e-02 2.0672087341786511e-02 0.0000000000000000e+00  1.2004661204459879e-02 -4.9966652416519866e-03 0.0000000000000000e+00  5.4464423921608716e-03 -1.8697825749931146e-02 0.0000000000000000e+00  8.6662294479502126e-03 -2.7250935357720194e-02 0.0000000000000000e+00  2.8348455910710457e-03 -2.8433990192709414e-02 0.0000000000000000e+00  7.2423212077381361e-03 -3.3106877443337790e-02 0.0000000000000000e+00  3.7375516618436558e-03 -3.0389607211265598e-02 0.0000000000000000e+00  -1.2026292642950045e-03 -3.1305123356268297e-02 0.0000000000000000e+00  5.8070994974676006e-03 -2.7451245041871200e-02 0.0000000000000000e+00  -1.3907563280968951e-03 -2.7814947835172795e-02 0.0000000000000000e+00  4.9608484872972003e-03 -2.6285627468001838e-02 0.0000000000000000e+00  -1.2514193452283114e-03 -2.5339712477588462e-02 0.0000000000000000e+00  4.8672108782138023e-03 -2.5084997864071132e-02 0.0000000000000000e+00  6.5434835907474638e-05 -2.1960304797689147e-02 0.0000000000000000e+00  -4.5087613330143148e-04 -2.2414098524329608e-02 0.0000000000000000e+00  1.7842657388400336e-03 -2.0825151177911078e-02 0.0000000000000000e+00  -6.2339014504441922e-04 -2.1499807618839933e-02 0.0000000000000000e+00  2.1289169096145710e-03 -2.0610523597765548e-02 0.0000000000000000e+00  -1.0315603074287068e-03 -2.0789755246458267e-02 0.0000000000000000e+00  2.7402398174557162e-03 -2.0723329234992819e-02 0.0000000000000000e+00  -1.6843823489226958e-03 -2.0689887135941387e-02 0.0000000000000000e+00  3.8122201590611486e-03 -2.0792189805270232e-02 0.0000000000000000e+00  -6.2966537664130827e-04 -1.9230694051971926e-02 0.0000000000000000e+00  -1.3915171622336170e-03 -2.1280668652090523e-02 0.0000000000000000e+00  1.3807200086427469e-03 -2.2438162664849194e-02 0.0000000000000000e+00  -7.4025431776726853e-04 -2.3056432587224562e-02 0.0000000000000000e+00  1.5504544720526586e-03 -2.4277579449572210e-02 0.0000000000000000e+00  -2.0078950997830095e-03 -2.5842281811968737e-02 0.0000000000000000e+00  3.1289403631039421e-03 -2.6549583672626768e-02 0.0000000000000000e+00  -3.2537683162955303e-03 -2.7550576742024616e-02 0.0000000000000000e+00  3.7334629006311286e-03 -2.9288899616604289e-02 0.0000000000000000e+00  -2.9342481238362078e-03 -3.0161035672071752e-02 0.0000000000000000e+00  3.0497207539433614e-03 -3.4082230971256934e-02 0.0000000000000000e+00  -3.3862200957844773e-03 -3.5462263138328440e-02 0.0000000000000000e+00  3.3086745616893233e-03 -3.6817653544631394e-02 0.0000000000000000e+00  -4.6842123086614749e-03 -3.7452267917190182e-02 0.0000000000000000e+00  4.6384294463194982e-03 -4.1021359506267133e-02 0.0000000000000000e+00  -6.3517354848402581e-03 -4.5030731438373807e-02 0.0000000000000000e+00  5.3611965813907588e-03 -4.9711152690668163e-02 0.0000000000000000e+00  -6.7544491356838765e-03 -4.9233148362905967e-02 0.0000000000000000e+00  4.1220237465790076e-03 -5.5314580815652444e-02 0.0000000000000000e+00  2.7199595149894818e-04 -5.3676423799425700e-02 0.0000000000000000e+00  -1.1022444527505644e-02 -6.0476668258649294e-02 0.0000000000000000e+00  4.1490284567258220e-03 -6.0063091471037028e-02 0.0000000000000000e+00  -9.8289191263166570e-03 -6.3793753875808962e-02 0.0000000000000000e+00  5.6436974162570900e-03 -4.7105711675944274e-02 0.0000000000000000e+00  6.9832216748739835e-03 -2.9246589101899284e-02 0.0000000000000000e+00  -6.3202678663063236e-03 -2.4954510824449175e-02 0.0000000000000000e+00  2.0843537983085696e-04 -4.5922509909218312e-02 0.0000000000000000e+00  1.0166021396440062e-02 -6.0607630901413474e-02 0.0000000000000000e+00  -2.3603346408700172e-03 -6.0106561857276808e-02 0.0000000000000000e+00  1.0136022076367298e-02 -6.2112535345243185e-02 0.0000000000000000e+00  1.5191655419785576e-03 -5.1901060347467033e-02 0.0000000000000000e+00  -5.2909367975464694e-03 -5.3928040767532867e-02 0.0000000000000000e+00  7.0427901210363408e-03 -4.6031570128036145e-02 0.0000000000000000e+00  -5.3944476483168240e-03 -4.5283451818075943e-02 0.0000000000000000e+00  5.7414160910094604e-03 -4.2575779192648773e-02 0.0000000000000000e+00  -4.5217988914570996e-03 -4.1424379331487127e-02 0.0000000000000000e+00  4.4499591002908710e-03 -3.7449852065292936e-02 0.0000000000000000e+00  -4.2326209644504929e-03 -3.5274121627200256e-02 0.0000000000000000e+00  3.8885762363281007e-03 -3.1175853931099479e-02 0.0000000000000000e+00  -4.0900356945604132e-03 -2.9938587230567047e-02 0.0000000000000000e+00  3.1073846102035309e-03 -2.8521666250565590e-02 0.0000000000000000e+00  -3.5968087463636800e-03 -2.7969182469354918e-02 0.0000000000000000e+00  2.5967966437558322e-03 -2.6286906073392371e-02 0.0000000000000000e+00  -3.4019519905128816e-03 -2.5091633956533046e-02 0.0000000000000000e+00  2.3818658519220272e-03 -2.3084645946898526e-02 0.0000000000000000e+00  -3.2982305840041676e-03 -2.2491173829240513e-02 0.0000000000000000e+00  2.0808276734055262e-03 -2.1929753066122538e-02 0.0000000000000000e+00  -2.9420388675373728e-03 -2.1213725534886142e-02 0.0000000000000000e+00  2.0982953831797540e-03 -2.1285814150595328e-02 0.0000000000000000e+00  -1.1526123388552647e-03 -1.9402289553910337e-02 0.0000000000000000e+00  -2.5907983167210891e-03 -2.0615454494454510e-02 0.0000000000000000e+00  3.2754252535458617e-04 -2.0034917657348772e-02 0.0000000000000000e+00  -2.4617187851286126e-03 -2.1330701366154569e-02 0.0000000000000000e+00  6.0750880327688987e-04 -2.2301817714493952e-02 0.0000000000000000e+00  -2.3366817706788651e-03 -2.2558756177426795e-02 0.0000000000000000e+00  6.1321375251062688e-04 -2.2621145609080868e-02 0.0000000000000000e+00  -2.1454364491852633e-03 -2.1703147585496997e-02 0.0000000000000000e+00  6.7327662599124441e-04 -2.2328729951860072e-02 0.0000000000000000e+00  -1.4257750803995463e-04 -2.2095279643342638e-02 0.0000000000000000e+00  -5.1026260899672375e-03 -2.5272278188972506e-02 0.0000000000000000e+00  1.3352622001324488e-03 -2.5937338192171321e-02 0.0000000000000000e+00  -5.4931431055382741e-03 -2.7310967751372081e-02 0.0000000000000000e+00  1.7888000775847237e-03 -2.8892453405659928e-02 0.0000000000000000e+00  -6.2362804709290938e-03 -2.8857951217500052e-02 0.0000000000000000e+00  1.5588765883374782e-03 -3.1187146190306572e-02 0.0000000000000000e+00  -3.7308004252722508e-03 -3.0370611425841017e-02 0.0000000000000000e+00  -7.1489022685892849e-03 -3.3230846493187263e-02 0.0000000000000000e+00  -2.5673690485982620e-03 -2.8752756430880509e-02 0.0000000000000000e+00  -9.2238578487810439e-03 -2.7739338092608704e-02 0.0000000000000000e+00  -5.7470465436943903e-03 -1.8272672594503429e-02 0.0000000000000000e+00  -1.1864954873760335e-02 -5.2931712790291819e-03 0.0000000000000000e+00  -1.6238154092197397e-02 2.0324857405337935e-02 0.0000000000000000e+00  1.0684172188079078e-04 3.9721270725808638e-03 0.0000000000000000e+00  5.3668534098510781e-05 3.7986309939622605e-02 0.0000000000000000e+00  -9.1941798218124146e-04 4.6353696373142080e-02 0.0000000000000000e+00  1.4801679098087545e-03 4.1420468336649009e-02 0.0000000000000000e+00  5.1867142463048015e-04 1.9236781593401756e-02 0.0000000000000000e+00  1.4161948243563707e-04 3.6389613984727939e-02 0.0000000000000000e+00  -2.3542494582678134e-04 2.4206510015573748e-02 0.0000000000000000e+00  5.8086403754037039e-05 3.1865551425707239e-02 0.0000000000000000e+00  8.0568882132331864e-04 2.4270095552817266e-02 0.0000000000000000e+00  5.2280890978829372e-05 2.2194426891831053e-02 0.0000000000000000e+00  -2.2985286824827389e-05 2.7713866328673127e-02 0.0000000000000000e+00  5.4312914528203526e-04 1.7702946071215531e-02 0.0000000000000000e+00  7.3372655388623202e-05 2.2012152289724710e-02 0.0000000000000000e+00  -5.4507448060942681e-04 1.9410100108273456e-02 0.0000000000000000e+00  -2.0062843534979353e-05 1.7373031923170003e-02 0.0000000000000000e+00  -2.7208328840197356e-05 2.0080737091875071e-02 0.0000000000000000e+00  4.1219255831052861e-05 2.4482321336944186e-02 0.0000000000000000e+00  -2.6347367451255103e-04 1.7029600612007742e-02 0.0000000000000000e+00  9.3644278400078002e-05 1.8369427558851223e-02 0.0000000000000000e+00  -1.3978121088867789e-04 1.6169521751758113e-02 0.0000000000000000e+00  -4.1813881365018724e-04 1.7003152358793752e-02 0.0000000000000000e+00  1.9667145488621709e-04 1.2564576471116039e-02 0.0000000000000000e+00  -6.5069480561285950e-06 1.3854667348335242e-02 0.0000000000000000e+00  -2.0214141354941695e-05 3.6428324058513512e-02 0.0000000000000000e+00  2.3144204388247989e-05 1.9140282392051448e-02 0.0000000000000000e+00  1.6761556985281781e-03 3.8227652299021829e-02 0.0000000000000000e+00  -5.7264554173852306e-03 1.0699676716072375e-02 0.0000000000000000e+00  -1.6158088277660972e-03 2.3125686648478062e-02 0.0000000000000000e+00  -2.6353081609674775e-03 2.7157523431627618e-02 0.0000000000000000e+00  8.2876427035713843e-04 2.0871943343278115e-02 0.0000000000000000e+00  -1.6717119507520632e-03 1.6107805982271652e-02 0.0000000000000000e+00  -8.0873670635892665e-04 1.5836901488602024e-02 0.0000000000000000e+00  -1.0171364302814193e-03 2.0206933910392105e-02 0.0000000000000000e+00  -7.0151948727025231e-04 1.2149143221407914e-02 0.0000000000000000e+00  -2.9613500925464094e-04 1.4293750919953715e-02 0.0000000000000000e+00  -6.7894694314262990e-04 1.4029197760664686e-02 0.0000000000000000e+00  -2.0641458215069628e-04 1.2197331064664158e-02 0.0000000000000000e+00  -3.5974817573045478e-04 1.3548293010493281e-02 0.0000000000000000e+00  -9.4210581508974336e-04 1.8208643457021324e-02 0.0000000000000000e+00  9.8742382549624544e-05 1.2843582283285710e-02 0.0000000000000000e+00  -1.4263154839471860e-05 1.1997241199682842e-02 0.0000000000000000e+00  6.7977109537982927e-04 -7.7936261880502478e-03 0.0000000000000000e+00  -1.0724678900253461e-03 -7.2624170136708407e-03 0.0000000000000000e+00  -1.2304627685186878e-02 2.6729173234979302e-02 0.0000000000000000e+00  6.0170223722947726e-03 1.1107822640573608e-02 