<?xml version="1.0"?>
<VTKFile type="UnstructuredGrid"  version="0.1"  >
<UnstructuredGrid>
<Piece  NumberOfPoints="1419" NumberOfCells="2698">
<Points>
<DataArray  type="Float64"  NumberOfComponents="3"  format="ascii">-3.404523341677446e-10 -8.233302522006918e-07 0  9.31170047451171e-09 0.4099991732043885 0  2.500000011893694 -1.203620076110067e-06 0  2.500000011893701 0.4099987963799345 0  0.6000000121964895 0.1899987543753476 0  0.6000000181467428 0.2099987562406925 0  0.25 0.2 0  0.1500000042929301 0.1999991822979021 0  0.2489897948556636 0.21 0  0.2489897948556636 0.19 0  0.6000000163304461 0.1999987497434102 0  9.203854620668083e-09 0.3807134591554355 0  8.896407781639631e-09 0.3514277455136454 0  8.378659930609684e-09 0.3221420321833157 0  7.649086553569451e-09 0.2928563189578552 0  6.743764357748656e-09 0.2635706056783643 0  5.696959520603535e-09 0.2342848922384553 0  4.549972314229109e-09 0.204999178478484 0  3.396925196491591e-09 0.1757134644255838 0  2.321066343370014e-09 0.1464277500501316 0  1.376072800345166e-09 0.1171420354124659 0  6.36049770593247e-10 0.08785632061012806 0  8.870065047607761e-11 0.05857060578558337 0  -2.367462543943682e-10 0.02928489109614145 0  0.03015443715361403 -8.234885785835617e-07 0  0.06140001905703166 -8.240621195042165e-07 0  0.0937762393340469 -8.253623527988373e-07 0  0.1273239934208621 -8.279330352950757e-07 0  0.1620856825834946 -8.327504439526962e-07 0  0.1981052386299116 -8.422076810274328e-07 0  0.2354281782497152 -8.598760633287659e-07 0  0.2741016510197802 -8.880372871336684e-07 0  0.3141745453391543 -9.269967784829733e-07 0  0.3556974865108843 -9.752285967257194e-07 0  0.3987229496170057 -1.027092962854124e-06 0  0.4433053030896697 -1.07680413176892e-06 0  0.4895008761725508 -1.120509153452535e-06 0  0.5373680639652438 -1.154621649664478e-06 0  0.5869673398859695 -1.177779912865517e-06 0  0.6383613753133232 -1.192014419710768e-06 0  0.6916151229909442 -1.199068107332273e-06 0  0.746795869705785 -1.202161452620689e-06 0  0.8039733571909171 -1.203409644420157e-06 0  0.8632198251666664 -1.2038139992259e-06 0  0.9246101441682341 -1.203875230543925e-06 0  0.9882218927339769 -1.203824885430118e-06 0  1.054135457302341 -1.203763820495475e-06 0  1.122434112346397 -1.203712924441129e-06 0  1.19320418898346 -1.203676004206467e-06 0  1.266535101744331 -1.203652432425701e-06 0  1.342519527923833 -1.203638550411042e-06 0  1.421253460388688 -1.203630324526179e-06 0  1.502836400995259 -1.20362549602339e-06 0  1.587371451650091 -1.203622894694574e-06 0  1.674965430669821 -1.203621517511438e-06 0  1.765729013718625 -1.203620784426544e-06 0  1.859776920773474 -1.203620423999039e-06 0  1.957227989380617 -1.203620234995754e-06 0  2.058205341763572 -1.203620148949425e-06 0  2.162836603083618 -1.20362010503504e-06 0  2.271253969184547 -1.203620086426418e-06 0  2.383594458697115 -1.203620078462539e-06 0  2.500000011893694 0.1024987963796866 0  2.500000011893696 0.2049987963794034 0  2.500000011893701 0.3074987963796512 0  2.383594458697358 0.4099987963799367 0  2.271253969185024 0.4099987963799449 0  2.162836603084325 0.4099987963799643 0  2.058205341764539 0.4099987963800062 0  1.957227989381904 0.4099987963800914 0  1.859776920775254 0.4099987963802896 0  1.765729013721171 0.4099987963806489 0  1.674965430673792 0.4099987963814125 0  1.587371451656571 0.4099987963827939 0  1.502836401006368 0.4099987963854256 0  1.421253460408456 0.4099987963905135 0  1.342519527958253 0.4099987963991596 0  1.26653510180387 0.4099987964142848 0  1.193204189087964 0.409998796442786 0  1.122434112526771 0.4099987964939407 0  1.054135457600242 0.4099987965795607 0  0.9882218932309939 0.4099987967493758 0  0.9246101449704711 0.4099987970616185 0  0.8632198264499423 0.4099987976602194 0  0.8039733592003575 0.4099987988584101 0  0.7467958727938226 0.4099988012624107 0  0.6916151275950784 0.4099988059418453 0  0.6383613819918521 0.4099988150242164 0  0.5869673492335689 0.409998830551607 0  0.5373680764292851 0.4099988543896189 0  0.4895008920211109 0.4099988880232112 0  0.4433053222050402 0.4099989296109731 0  0.3987229713846883 0.4099989763276313 0  0.3556975098747142 0.4099990244689505 0  0.3141745690250743 0.409999069330861 0  0.2741016736855909 0.4099991065667362 0  0.2354281989801476 0.4099991333373271 0  0.1981052569112319 0.4099991509418952 0  0.1620856983536599 0.4099991612738152 0  0.1273240069691691 0.4099991670364737 0  0.09377625112515038 0.4099991703565862 0  0.06140002962716503 0.4099991720830244 0  0.03015444701352871 0.4099991729802391 0  0.2497468076502589 0.2050254481002335 0  0.2497468076502614 0.1949745518997913 0  0.2469965146720477 0.1829313021362313 0  0.2439893617145472 0.176231090430443 0  0.2400332031983201 0.1700437065157111 0  0.2352133864982014 0.164502603656871 0  0.2296338918333813 0.1597273062290673 0  0.2234150886473429 0.1558208289529708 0  0.2166911385963919 0.1528674445779943 0  0.2096071011673477 0.1509308657709988 0  0.2023158042873645 0.1500528689225052 0  0.1949745471117693 0.1502523951785809 0  0.1877417067090809 0.1515251387032962 0  0.1807733211419764 0.1538436415302838 0  0.1742197233088397 0.1571578846321398 0  0.1682222975935437 0.1613963678071561 0  0.1629104298417543 0.1664676515275164 0  0.158398715905224 0.172262330082828 0  0.1547844895403971 0.1786553914740626 0  0.1521457224445136 0.185508914593819 0  0.1505393422583384 0.1926750444998878 0  0.1505393440286299 0.2073233202817655 0  0.1521457260022847 0.2144894507701713 0  0.1547844948488925 0.2213429748992094 0  0.1583987229935407 0.2277360378531083 0  0.1629104386841356 0.2335307186257923 0  0.1682223082272342 0.238602005545316 0  0.1742197356998638 0.2428404930236809 0  0.1807733353232342 0.2461547420966399 0  0.1877417226829275 0.2484732531325132 0  0.1949745648920974 0.2497460079729995 0  0.2023158238569892 0.2499455491920594 0  0.2096071225686485 0.2490675732430578 0  0.2166911617776979 0.2471310219669315 0  0.2234151136045494 0.2441776761126771 0  0.2296339184662921 0.2402712511943893 0  0.2352134145852326 0.2354960280440249 0  0.2400332322502333 0.2299550295324639 0  0.2439893903873029 0.2237678113709015 0  0.2469965393083027 0.2170678858223174 0  0.2564581163048855 0.2099996021561778 0  0.2639264230491997 0.209999466288889 0  0.2713947282492142 0.2099993776803259 0  0.2788630307819474 0.2099993100870199 0  0.2863313331824575 0.2099992549103857 0  0.2937996367217433 0.2099992066869715 0  0.3012679387876279 0.2099991625663695 0  0.3087362398303425 0.2099991327670445 0  0.3162045443090822 0.2099991039558972 0  0.3236728446850045 0.2099990771419651 0  0.3311411490486653 0.2099990531422612 0  0.3386094488878064 0.2099990310858569 0  0.3460777523102253 0.2099990099824937 0  0.353546052576828 0.2099989869572986 0  0.3610143530164724 0.2099989753929599 0  0.3684826559471145 0.2099989616582005 0  0.3759509557418845 0.2099989473202986 0  0.3834192587037801 0.2099989337830344 0  0.3908875585260924 0.2099989206911607 0  0.3983558615658256 0.2099989083587684 0  0.4058241612587605 0.2099988959054356 0  0.4132924640008856 0.2099988828087687 0  0.4207607638612591 0.2099988670184873 0  0.4282290644445259 0.2099988602241351 0  0.435697367137845 0.2099988511660593 0  0.443165667540095 0.2099988411232654 0  0.4506339704489237 0.2099988309858498 0  0.4581022707382927 0.2099988210765097 0  0.4655705738928799 0.2099988113807223 0  0.4730388740182408 0.2099988019369651 0  0.4805071774577759 0.2099987926730867 0  0.4879754777376974 0.2099987836588934 0  0.495443781557259 0.2099987748207064 0  0.5029120815981831 0.2099987669191533 0  0.5103803856414835 0.2099987596782791 0  0.5178486861065377 0.2099987531580808 0  0.5253169914382425 0.2099987466829771 0  0.5327852918608051 0.2099987406376786 0  0.5402535971230459 0.2099987356256002 0  0.547721897869017 0.2099987319688982 0  0.5551902038377804 0.209998726815426 0  0.5626585054827647 0.2099987184695907 0  0.5701268069039911 0.2099987287530926 0  0.5775951131877359 0.2099987354176419 0  0.5850634142200121 0.2099987403088446 0  0.5925317180681388 0.2099987482509141 0  0.6000000190305201 0.2049987520591832 0  0.6000000127617291 0.1949987522458833 0  0.5925317093576882 0.1899987448490569 0  0.5850634092514774 0.1899987354403161 0  0.5775951044380585 0.1899987282513753 0  0.5701268042597168 0.1899987214811922 0  0.5626585000374608 0.1899987115910678 0  0.5551901949689272 0.1899987184819049 0  0.5477218945708856 0.1899987214650021 0  0.5402535885839884 0.1899987245040158 0  0.5327852883434065 0.1899987286306888 0  0.5253169820054434 0.1899987338715233 0  0.5178486807997016 0.1899987400596103 0  0.5103803748144893 0.1899987470036177 0  0.5029120741177532 0.1899987545747381 0  0.4954437684873269 0.1899987628340455 0  0.4879754676325442 0.1899987716654126 0  0.4805071621397988 0.1899987810093753 0  0.4730388606489347 0.1899987907164822 0  0.4655705554000824 0.18999880085521 0  0.4581022543043705 0.1899988112784283 0  0.4506339495131576 0.1899988219501952 0  0.4431656482993835 0.1899988328503745 0  0.4356973434107068 0.1899988439045633 0  0.4282290415883984 0.1899988544801272 0  0.4207607371919086 0.1899988625488934 0  0.4132924333471609 0.1899988792357895 0  0.4058241319475256 0.1899988938739957 0  0.3983558278964923 0.1899989072095731 0  0.3908875262258761 0.1899989207904009 0  0.3834192220528522 0.1899989346060225 0  0.3759509202270691 0.1899989487861289 0  0.36848261609349 0.1899989635140332 0  0.3610143146701162 0.1899989772552613 0  0.3535460105029335 0.1899989893959648 0  0.3460777057799565 0.1899990128170726 0  0.3386094042171598 0.1899990349975786 0  0.3311410994349112 0.1899990573426255 0  0.32367279846333 0.1899990815083421 0  0.3162044940908399 0.1899991081359361 0  0.3087361932601767 0.1899991364238428 0  0.3012678888878837 0.1899991659869568 0  0.293799585825007 0.1899992095406703 0  0.2863312844394498 0.1899992575517118 0  0.2788629821940667 0.1899993125642363 0  0.2713946797071055 0.1899993798868717 0  0.2639263796706596 0.1899994689635451 0  0.256458080670469
[...]
<PointData  Vectors="f_30-0"> 
<DataArray  type="Float64"  Name="f_30-0"  NumberOfComponents="3" format="ascii">0.0000000000000000e+00 0.0000000000000000e+00 0.0000000000000000e+00  0.0000000000000000e+00 0.0000000000000000e+00 0.0000000000000000e+00  0.0000000000000000e+00 0.0000000000000000e+00 0.0000000000000000e+00  0.0000000000000000e+00 0.0000000000000000e+00 0.0000000000000000e+00  6.9928731790344411e-03 -3.9912209313611807e-02 0.0000000000000000e+00  9.6682355684286018e-03 -3.5400544437968605e-02 0.0000000000000000e+00  0.0000000000000000e+00 0.0000000000000000e+00 0.0000000000000000e+00  0.0000000000000000e+00 0.0000000000000000e+00 0.0000000000000000e+00  0.0000000000000000e+00 0.0000000000000000e+00 0.0000000000000000e+00  0.0000000000000000e+00 0.0000000000000000e+00 0.0000000000000000e+00  2.9194547224370454e-02 -1.0082025204971093e-01 0.0000000000000000e+00  0.0000000000000000e+00 0.0000000000000000e+00 0.0000000000000000e+00  0.0000000000000000e+00 0.0000000000000000e+00 0.0000000000000000e+00  0.0000000000000000e+00 0.0000000000000000e+00 0.0000000000000000e+00  0.0000000000000000e+00 0.0000000000000000e+00 0.0000000000000000e+00  0.0000000000000000e+00 0.0000000000000000e+00 0.0000000000000000e+00  0.0000000000000000e+00 0.0000000000000000e+00 0.0000000000000000e+00  0.0000000000000000e+00 0.0000000000000000e+00 0.0000000000000000e+00  0.0000000000000000e+00 0.0000000000000000e+00 0.0000000000000000e+00  0.0000000000000000e+00 0.0000000000000000e+00 0.0000000000000000e+00  0.0000000000000000e+00 0.0000000000000000e+00 0.0000000000000000e+00  0.0000000000000000e+00 0.0000000000000000e+00 0.0000000000000000e+00  0.0000000000000000e+00 0.0000000000000000e+00 0.0000000000000000e+00  0.0000000000000000e+00 0.0000000000000000e+00 0.0000000000000000e+00  0.0000000000000000e+00 0.0000000000000000e+00 0.0000000000000000e+00  0.0000000000000000e+00 0.0000000000000000e+00 0.0000000000000000e+00  0.0000000000000000e+00 0.0000000000000000e+00 0.0000000000000000e+00  0.0000000000000000e+00 0.0000000000000000e+00 0.0000000000000000e+00  0.0000000000000000e+00 0.0000000000000000e+00 0.0000000000000000e+00  0.0000000000000000e+00 0.0000000000000000e+00 0.0000000000000000e+00  0.0000000000000000e+00 0.0000000000000000e+00 0.0000000000000000e+00  0.0000000000000000e+00 0.0000000000000000e+00 0.0000000000000000e+00  0.0000000000000000e+00 0.0000000000000000e+00 0.0000000000000000e+00  0.0000000000000000e+00 0.0000000000000000e+00 0.0000000000000000e+00  0.0000000000000000e+00 0.0000000000000000e+00 0.0000000000000000e+00  0.0000000000000000e+00 0.0000000000000000e+00 0.0000000000000000e+00  0.0000000000000000e+00 0.0000000000000000e+00 0.0000000000000000e+00  0.0000000000000000e+00 0.0000000000000000e+00 0.0000000000000000e+00  0.0000000000000000e+00 0.0000000000000000e+00 0.0000000000000000e+00  0.0000000000000000e+00 0.0000000000000000e+00 0.0000000000000000e+00  0.0000000000000000e+00 0.0000000000000000e+00 0.0000000000000000e+00  0.0000000000000000e+00 0.0000000000000000e+00 0.0000000000000000e+00  0.0000000000000000e+00 0.0000000000000000e+00 0.0000000000000000e+00  0.0000000000000000e+00 0.0000000000000000e+00 0.0000000000000000e+00  0.0000000000000000e+00 0.0000000000000000e+00 0.0000000000000000e+00  0.0000000000000000e+00 0.0000000000000000e+00 0.0000000000000000e+00  0.0000000000000000e+00 0.0000000000000000e+00 0.0000000000000000e+00  0.0000000000000000e+00 0.0000000000000000e+00 0.0000000000000000e+00  0.0000000000000000e+00 0.0000000000000000e+00 0.0000000000000000e+00  0.0000000000000000e+00 0.0000000000000000e+00 0.0000000000000000e+00  0.0000000000000000e+00 0.0000000000000000e+00 0.0000000000000000e+00  0.0000000000000000e+00 0.0000000000000000e+00 0.0000000000000000e+00  0.0000000000000000e+00 0.0000000000000000e+00 0.0000000000000000e+00  0.0000000000000000e+00 0.0000000000000000e+00 0.0000000000000000e+00  0.0000000000000000e+00 0.0000000000000000e+00 0.0000000000000000e+00  0.0000000000000000e+00 0.0000000000000000e+00 0.0000000000000000e+00  0.0000000000000000e+00 0.0000000000000000e+00 0.0000000000000000e+00  0.0000000000000000e+00 0.0000000000000000e+00 0.0000000000000000e+00  0.0000000000000000e+00 0.0000000000000000e+00 0.0000000000000000e+00  0.0000000000000000e+00 0.0000000000000000e+00 0.0000000000000000e+00  0.0000000000000000e+00 0.0000000000000000e+00 0.0000000000000000e+00  0.0000000000000000e+00 0.0000000000000000e+00 0.0000000000000000e+00  4.2761117820706921e-09 1.4751557559772493e-09 0.0000000000000000e+00  -1.7945435511094795e-10 1.8885865714419328e-09 0.0000000000000000e+00  -4.6609151609364590e-09 1.7690541092196247e-09 0.0000000000000000e+00  0.0000000000000000e+00 0.0000000000000000e+00 0.0000000000000000e+00  0.0000000000000000e+00 0.0000000000000000e+00 0.0000000000000000e+00  0.0000000000000000e+00 0.0000000000000000e+00 0.0000000000000000e+00  0.0000000000000000e+00 0.0000000000000000e+00 0.0000000000000000e+00  0.0000000000000000e+00 0.0000000000000000e+00 0.0000000000000000e+00  0.0000000000000000e+00 0.0000000000000000e+00 0.0000000000000000e+00  0.0000000000000000e+00 0.0000000000000000e+00 0.0000000000000000e+00  0.0000000000000000e+00 0.0000000000000000e+00 0.0000000000000000e+00  0.0000000000000000e+00 0.0000000000000000e+00 0.0000000000000000e+00  0.0000000000000000e+00 0.0000000000000000e+00 0.0000000000000000e+00  0.0000000000000000e+00 0.0000000000000000e+00 0.0000000000000000e+00  0.0000000000000000e+00 0.0000000000000000e+00 0.0000000000000000e+00  0.0000000000000000e+00 0.0000000000000000e+00 0.0000000000000000e+00  0.0000000000000000e+00 0.0000000000000000e+00 0.0000000000000000e+00  0.0000000000000000e+00 0.0000000000000000e+00 0.0000000000000000e+00  0.0000000000000000e+00 0.0000000000000000e+00 0.0000000000000000e+00  0.0000000000000000e+00 0.0000000000000000e+00 0.0000000000000000e+00  0.0000000000000000e+00 0.0000000000000000e+00 0.0000000000000000e+00  0.0000000000000000e+00 0.0000000000000000e+00 0.0000000000000000e+00  0.0000000000000000e+00 0.0000000000000000e+00 0.0000000000000000e+00  0.0000000000000000e+00 0.0000000000000000e+00 0.0000000000000000e+00  0.0000000000000000e+00 0.0000000000000000e+00 0.0000000000000000e+00  0.0000000000000000e+00 0.0000000000000000e+00 0.0000000000000000e+00  0.0000000000000000e+00 0.0000000000000000e+00 0.0000000000000000e+00  0.0000000000000000e+00 0.0000000000000000e+00 0.0000000000000000e+00  0.0000000000000000e+00 0.0000000000000000e+00 0.0000000000000000e+00  0.0000000000000000e+00 0.0000000000000000e+00 0.0000000000000000e+00  0.0000000000000000e+00 0.0000000000000000e+00 0.0000000000000000e+00  0.0000000000000000e+00 0.0000000000000000e+00 0.0000000000000000e+00  0.0000000000000000e+00 0.0000000000000000e+00 0.0000000000000000e+00  0.0000000000000000e+00 0.0000000000000000e+00 0.0000000000000000e+00  0.0000000000000000e+00 0.0000000000000000e+00 0.0000000000000000e+00  0.0000000000000000e+00 0.0000000000000000e+00 0.0000000000000000e+00  0.0000000000000000e+00 0.0000000000000000e+00 0.0000000000000000e+00  0.0000000000000000e+00 0.0000000000000000e+00 0.0000000000000000e+00  0.0000000000000000e+00 0.0000000000000000e+00 0.0000000000000000e+00  0.0000000000000000e+00 0.0000000000000000e+00 0.0000000000000000e+00  0.0000000000000000e+00 0.0000000000000000e+00 0.0000000000000000e+00  0.0000000000000000e+00 0.0000000000000000e+00 0.0000000000000000e+00  0.0000000000000000e+00 0.0000000000000000e+00 0.0000000000000000e+00  0.0000000000000000e+00 0.0000000000000000e+00 0.0000000000000000e+00  0.0000000000000000e+00 0.0000000000000000e+00 0.0000000000000000e+00  0.0000000000000000e+00 0.0000000000000000e+00 0.0000000000000000e+00  0.0000000000000000e+00 0.0000000000000000e+00 0.0000000000000000e+00  0.0000000000000000e+00 0.0000000000000000e+00 0.0000000000000000e+00  0.0000000000000000e+00 0.0000000000000000e+00 0.0000000000000000e+00  0.0000000000000000e+00 0.0000000000000000e+00 0.0000000000000000e+00  0.0000000000000000e+00 0.0000000000000000e+00 0.0000000000000000e+00  0.0000000000000000e+00 0.0000000000000000e+00 0.0000000000000000e+00  0.0000000000000000e+00 0.0000000000000000e+00 0.0000000000000000e+00  0.0000000000000000e+00 0.0000000000000000e+00 0.0000000000000000e+00  0.0000000000000000e+00 0.0000000000000000e+00 0.0000000000000000e+00  0.0000000000000000e+00 0.0000000000000000e+00 0.0000000000000000e+00  0.0000000000000000e+00 0.0000000000000000e+00 0.0000000000000000e+00  0.0000000000000000e+00 0.0000000000000000e+00 0.0000000000000000e+00  0.0000000000000000e+00 0.0000000000000000e+00 0.0000000000000000e+00  0.0000000000000000e+00 0.0000000000000000e+00 0.0000000000000000e+00  0.0000000000000000e+00 0.0000000000000000e+00 0.0000000000000000e+00  0.0000000000000000e+00 0.0000000000000000e+00 0.0000000000000000e+00  0.0000000000000000e+00 0.0000000000000000e+00 0.0000000000000000e+00  0.0000000000000000e+00 0.0000000000000000e+00 0.0000000000000000e+00  0.0000000000000000e+00 0.0000000000000000e+00 0.0000000000000000e+00  0.0000000000000000e+00 0.0000000000000000e+00 0.0000000000000000e+00  0.0000000000000000e+00 0.0000000000000000e+00 0.0000000000000000e+00  0.0000000000000000e+00 0.0000000000000000e+00 0.0000000000000000e+00  0.0000000000000000e+00 0.0000000000000000e+00 0.0000000000000000e+00  0.0000000000000000e+00 0.0000000000000000e+00 0.0000000000000000e+00  0.0000000000000000e+00 0.0000000000000000e+00 0.0000000000000000e+00  0.0000000000000000e+00 0.0000000000000000e+00 0.0000000000000000e+00  0.0000000000000000e+00 0.0000000000000000e+00 0.0000000000000000e+00  0.0000000000000000e+00 0.0000000000000000e+00 0.0000000000000000e+00  0.0000000000000000e+00 0.0000000000000000e+00 0.0000000000000000e+00  0.0000000000000000e+00 0.0000000000000000e+00 0.0000000000000000e+00  0.0000000000000000e+00 0.0000000000000000e+00 0.0000000000000000e+00  0.0000000000000000e+00 0.0000000000000000e+00 0.0000000000000000e+00  0.0000000000000000e+00 0.0000000000000000e+00 0.0000000000000000e+00  0.0000000000000000e+00 0.0000000000000000e+00 0.0000000000000000e+00  0.0000000000000000e+00 0.0000000000000000e+00 0.0000000000000000e+00  6.7668747192205378e-02 1.8470596279453957e-01 0.0000000000000000e+00  5.3251142640659166e-02 1.3029143645752286e-01 0.0000000000000000e+00  4.4265144599318268e-02 6.1409614385726341e-02 0.0000000000000000e+00  2.6376587227417182e-02 -1.1327747716105951e-02 0.0000000000000000e+00  1.8113269046793588e-02 -4.0230906992233653e-02 0.0000000000000000e+00  2.1661443490149739e-02 -9.2788754772940657e-02 0.0000000000000000e+00  2.2508096218220704e-02 -1.1454270833208288e-01 0.0000000000000000e+00  -4.5700773148446413e-03 -1.2759157299801624e-01 0.0000000000000000e+00  2.9052397833746475e-02 -1.2260792586064068e-01 0.0000000000000000e+00  -4.7288570639205914e-03 -1.3105661723831807e-01 0.0000000000000000e+00  2.7809661961500809e-02 -1.3355027120034846e-01 0.0000000000000000e+00  -4.5452419360769974e-03 -1.3298219305954811e-01 0.0000000000000000e+00  3.0117308494427786e-02 -1.3972732898693138e-01 0.0000000000000000e+00  2.2642895093910077e-03 -1.3289344339603099e-01 0.0000000000000000e+00  -1.2811267844290604e-03 -1.2551796342697358e-01 0.0000000000000000e+00  1.1237809208606505e-02 -1.1109419013339003e-01 0.0000000000000000e+00  -3.4683354765432180e-03 -1.1615031822446163e-01 0.0000000000000000e+00  1.1601180130650465e-02 -1.0830839495049661e-01 0.0000000000000000e+00  -6.4696254582991873e-03 -1.0936502953849996e-01 0.0000000000000000e+00  1.4079156825620298e-02 -1.0861074384433621e-01 0.0000000000000000e+00  -1.1014880408723046e-02 -1.0840916734991173e-01 0.0000000000000000e+00  1.9490908053518753e-02 -1.1171507960464691e-01 0.0000000000000000e+00  -6.5584712485947062e-03 -1.1053505438963143e-01 0.0000000000000000e+00  -1.1500386291433318e-02 -1.1394833690562588e-01 0.0000000000000000e+00  3.1373388982946912e-03 -1.1830894852898954e-01 0.0000000000000000e+00  -8.5660517110196857e-03 -1.2062692893647985e-01 0.0000000000000000e+00  2.6076419789426517e-03 -1.2715373945529246e-01 0.0000000000000000e+00  -1.5756865735003085e-02 -1.3485383226929776e-01 0.0000000000000000e+00  1.0746873848146724e-02 -1.3784752253783308e-01 0.0000000000000000e+00  -2.2786876630766104e-02 -1.4200689707944139e-01 0.0000000000000000e+00  1.2946781217085904e-02 -1.5102016641923349e-01 0.0000000000000000e+00  -2.1474388053332863e-02 -1.5218947034381725e-01 0.0000000000000000e+00  8.8894389091172844e-03 -1.7573864570957490e-01 0.0000000000000000e+00  -2.1442230295639676e-02 -1.7910938412675823e-01 0.0000000000000000e+00  1.0791776818589746e-02 -1.7560976913577711e-01 0.0000000000000000e+00  -2.6315031811060409e-02 -1.7129554404873332e-01 0.0000000000000000e+00  1.5841711590102597e-02 -1.8174423292103656e-01 0.0000000000000000e+00  -3.0342840368253472e-02 -1.9865101659666212e-01 0.0000000000000000e+00  2.1700266055424491e-02 -2.0887607627503288e-01 0.0000000000000000e+00  -2.4239977623915127e-02 -1.9366692754399004e-01 0.0000000000000000e+00  2.2549093420959267e-02 -2.0275989214931045e-01 0.0000000000000000e+00  4.1515299949060475e-03 -1.9498490177899910e-01 0.0000000000000000e+00  -2.0367482953076187e-02 -1.8222083167386666e-01 0.0000000000000000e+00  2.8675406813660077e-02 -1.5226413800521013e-01 0.0000000000000000e+00  -2.4102064919630912e-03 -1.6922143751937443e-01 0.0000000000000000e+00  5.4401692742898813e-02 -1.3227002848738320e-01 0.0000000000000000e+00  5.5006451351494942e-02 -9.7713309833856954e-02 0.0000000000000000e+00  -2.0397488050749830e-02 -8.0437829208897596e-02 0.0000000000000000e+00  -5.8188156988613635e-03 -1.0598914262419384e-01 0.0000000000000000e+00  3.3766289120236062e-02 -1.4595221338720352e-01 0.0000000000000000e+00  -3.9226529322372566e-03 -1.5709528539168280e-01 0.0000000000000000e+00  3.3808094494968875e-02 -1.8628541039516308e-01 0.0000000000000000e+00  1.1481129778626194e-02 -1.7896831624622828e-01 0.0000000000000000e+00  -2.0914379685475881e-02 -1.9388944941088873e-01 0.0000000000000000e+00  3.0737009228135350e-02 -1.8038160033974879e-01 0.0000000000000000e+00  -2.1973643600128000e-02 -1.8287719865692609e-01 0.0000000000000000e+00  2.6961744396587453e-02 -1.8246198917566309e-01 0.0000000000000000e+00  -2.1695317284788258e-02 -1.8071527917320007e-01 0.0000000000000000e+00  2.1791126534834806e-02 -1.7170874313410725e-01 0.0000000000000000e+00  -2.1571249498465853e-02 -1.6526633059055423e-01 0.0000000000000000e+00  2.0203981931909799e-02 -1.5429300888832728e-01 0.0000000000000000e+00  -2.2259309865272230e-02 -1.4983517393413723e-01 0.0000000000000000e+00  1.6323707340233560e-02 -1.4483614468610329e-01 0.0000000000000000e+00  -2.0418545759873473e-02 -1.4158897678628390e-01 0.0000000000000000e+00  1.3962394492656918e-02 -1.3454720711607263e-01 0.0000000000000000e+00  -1.9626558206436467e-02 -1.2857810514191634e-01 0.0000000000000000e+00  1.2832524088803707e-02 -1.1971259559233183e-01 0.0000000000000000e+00  -1.8532955305157309e-02 -1.1662039074870513e-01 0.0000000000000000e+00  1.2031279437601627e-02 -1.1469187937135329e-01 0.0000000000000000e+00  -1.6576333777503092e-02 -1.1135871489600513e-01 0.0000000000000000e+00  1.2428047826926808e-02 -1.1448046342708922e-01 0.0000000000000000e+00  -6.0109381442875762e-03 -1.1025805476433877e-01 0.0000000000000000e+00  -1.5023308469129523e-02 -1.1168107770893157e-01 0.0000000000000000e+00  3.1185994040932052e-03 -1.0498096191856292e-01 0.0000000000000000e+00  -1.3380471568157349e-02 -1.1183286915919882e-01 0.0000000000000000e+00  4.9031413422973708e-03 -1.1659037464577686e-01 0.0000000000000000e+00  -1.2600604641891406e-02 -1.1887010705259891e-01 0.0000000000000000e+00  5.0579024840066884e-03 -1.2080132108327979e-01 0.0000000000000000e+00  -1.1715966954625867e-02 -1.1754447041533314e-01 0.0000000000000000e+00  6.6274118281451468e-03 -1.2576032486418895e-01 0.0000000000000000e+00  7.5006504436184575e-05 -1.3058368517372729e-01 0.0000000000000000e+00  -2.8927090393462619e-02 -1.4021293624569245e-01 0.0000000000000000e+00  7.3272050902913489e-03 -1.3419852289901588e-01 0.0000000000000000e+00  -3.0721227616694394e-02 -1.3705599672704472e-01 0.0000000000000000e+00  6.2428199677969235e-03 -1.3446236023888819e-01 0.0000000000000000e+00  -3.2450568937757454e-02 -1.2806209967866442e-01 0.0000000000000000e+00  4.3763561316548230e-03 -1.2566334289015238e-01 0.0000000000000000e+00  -2.4585044294882067e-02 -1.1112189458724968e-01 0.0000000000000000e+00  -2.8064855186931234e-02 -9.3352849053468717e-02 0.0000000000000000e+00  -2.2981636917670512e-02 -4.4833582598581188e-02 0.0000000000000000e+00  -2.8298369294894994e-02 -1.5437459268376662e-02 0.0000000000000000e+00  -4.3770857212686698e-02 5.6816970536768423e-02 0.0000000000000000e+00  -5.7453536279002647e-02 1.3308990479547839e-01 0.0000000000000000e+00  -7.3811260928012448e-02 1.8798854554300970e-01 0.0000000000000000e+00  -2.5331684085851337e-03 -7.6678331028166707e-02 0.0000000000000000e+00  -4.8368404424303886e-03 9.2461671188938346e-02 0.0000000000000000e+00  -1.4015064239448244e-03 1.3024573837183123e-01 0.0000000000000000e+00  6.1733387735580774e-03 1.5411613869276247e-01 0.0000000000000000e+00  -1.5506114226057324e-03 -1.8135934743735455e-02 0.0000000000000000e+00  3.8088234821152854e-04 1.5214807850446604e-01 0.0000000000000000e+00  1.7412975268732455e-03 4.6184518468897845e-02 0.0000000000000000e+00  3.2032755976141742e-04 1.4235762951782194e-01 0.0000000000000000e+00  3.3708703513842292e-03 1.0120064804313546e-01 0.0000000000000000e+00  6.1956656864056020e-04 1.0676431033501174e-01 0.0000000000000000e+00  -1.9546947858307116e-03 1.3359856179552029e-01 0.0000000000000000e+00  2.9931995293755753e-03 9.7082677573589668e-02 0.0000000000000000e+00  -5.2574582569275342e-04 1.1221240276089368e-01 0.0000000000000000e+00  -2.7143478747692841e-03 1.0281931521816723e-01 0.0000000000000000e+00  7.0094241453227783e-05 9.2223810231861950e-02 0.0000000000000000e+00  -8.9476347265897210e-04 1.0367069298074433e-01 0.0000000000000000e+00  5.8896676636942702e-04 1.2332212160296011e-01 0.0000000000000000e+00  -1.5907726051800858e-03 8.9284547286719904e-02 0.0000000000000000e+00  3.5474864175188629e-05 9.5634698970180135e-02 0.0000000000000000e+00  -7.5479564108629576e-04 8.5865867230050033e-02 0.0000000000000000e+00  -2.8305924847829588e-03 9.0038326029732565e-02 0.0000000000000000e+00  1.2671952155129610e-03 7.1940880769468918e-02 0.0000000000000000e+00  -6.0186094812469308e-04 8.2999941478444847e-02 0.0000000000000000e+00  -1.7022016156288779e-03 1.2896813539350843e-01 0.0000000000000000e+00  1.2969377391340397e-03 7.2449479974171505e-02 0.0000000000000000e+00  9.7245598287825884e-03 9.7520686335827556e-02 0.0000000000000000e+00  -2.6881378935331848e-02 -5.3707501694408626e-02 0.0000000000000000e+00  -3.6306087506078207e-03 1.0134348321692224e-01 0.0000000000000000e+00  -5.7441453204068052e-03 1.0999804182472414e-01 0.0000000000000000e+00  1.9184720990893283e-02 2.5908829772505505e-02 0.0000000000000000e+00  -3.8068113476521209e-03 7.4369995997677824e-02 0.0000000000000000e+00  -3.2153314550263344e-03 8.0478682955749545e-02 0.0000000000000000e+00  -1.7314532033057026e-03 9.4043029125319200e-02 0.0000000000000000e+00  -5.1890360452409284e-03 6.6247429989399767e-02 0.0000000000000000e+00  -7.8540593005071296e-04 7.3287860153783163e-02 0.0000000000000000e+00  -1.0429725334449628e-03 7.2513595377011075e-02 0.0000000000000000e+00  -1.6310206275705588e-03 6.4746188443339237e-02 0.0000000000000000e+00  -1.3356113719154431e-03 7.0296602893092877e-02 0.0000000000000000e+00  -2.6980319551771332e-03 9.1931465926396880e-02 0.0000000000000000e+00  1.1302970180869616e-03 6.8122942712994045e-02 0.0000000000000000e+00  7.4991368078003017e-04 6.2584696572166892e-02 0.0000000000000000e+00  -1.8362705883225128e-02 -9.5694448543320612e-02 0.0000000000000000e+00  1.7084603573831045e-02 -9.2345285491271842e-02 0.0000000000000000e+00  -4.2959312577002168e-02 6.5009226500560541e-02 0.0000000000000000e+00  2.3149890968564207e-02 -5.4625108583876682e-02 