<?xml version="1.0"?>
<VTKFile type="UnstructuredGrid"  version="0.1"  >
<UnstructuredGrid>
<Piece  NumberOfPoints="1419" NumberOfCells="2698">
<Points>
<DataArray  type="Float64"  NumberOfComponents="3"  format="ascii">1.222442078024768e-08 -1.336497751698412e-06 0  2.799168788752024e-08 0.4099986576418188 0  2.500000048374347 -1.965404552432294e-06 0  2.50000004837436 0.409998034595464 0  0.6000000528626521 0.1899979705957525 0  0.6000000649757269 0.209997972064138 0  0.25 0.2 0  0.15000001964139 0.1999986728425013 0  0.2489897948556636 0.21 0  0.2489897948556636 0.19 0  0.6000000616391361 0.1999979633915167 0  2.781120375648789e-08 0.3807129437517815 0  2.729738089391943e-08 0.3514272305423539 0  2.643500931432994e-08 0.3221415178539469 0  2.522623567983497e-08 0.292855805342039 0  2.373315783301647e-08 0.2635700927414177 0  2.201373718943704e-08 0.234284379874474 0  2.01384018494334e-08 0.2049986664747856 0  1.825934439720303e-08 0.1757129525870054 0  1.651230650513685e-08 0.1464272381609654 0  1.498320085159832e-08 0.1171415232967879 0  1.379047486504271e-08 0.08785580815641029 0  1.291134333905113e-08 0.05857009297731518 0  1.239024122874551e-08 0.02928437802150931 0  0.03015444965259818 -1.336760717518739e-06 0  0.06140003134327036 -1.337713699613091e-06 0  0.09377625125261889 -1.339875892788959e-06 0  0.1273240048295358 -1.34415433654657e-06 0  0.1620856933864075 -1.352178878874428e-06 0  0.1981052488406367 -1.367949225906665e-06 0  0.2354281880992269 -1.397451206680583e-06 0  0.2741016609776825 -1.444550785261001e-06 0  0.3141745560406742 -1.509802138804161e-06 0  0.3556974988590194 -1.59064735745024e-06 0  0.3987229644229631 -1.677448840211613e-06 0  0.4433053211070292 -1.760153584278624e-06 0  0.4895008979140314 -1.832144342004285e-06 0  0.5373680895312949 -1.887573131753522e-06 0  0.5869673688866061 -1.924652731442256e-06 0  0.6383614070483242 -1.947196747516108e-06 0  0.6916151565780858 -1.958277796739577e-06 0  0.7467959044435919 -1.963121112961965e-06 0  0.8039733926369099 -1.965072974358435e-06 0  0.8632198610331534 -1.965705607088279e-06 0  0.9246101802864162 -1.965801943651715e-06 0  0.9882219289960285 -1.965723755611109e-06 0  1.054135493655502 -1.965628667434046e-06 0  1.122434148751132 -1.965549336768607e-06 0  1.193204225420819 -1.965491773600463e-06 0  1.266535138200793 -1.965455016074818e-06 0  1.342519564390894 -1.96543336621654e-06 0  1.421253496861875 -1.965420536850864e-06 0  1.502836437471987 -1.965413005944051e-06 0  1.58737148812871 -1.965408948643324e-06 0  1.674965467149435 -1.965406800625128e-06 0  1.765729050198768 -1.965405657214496e-06 0  1.859776957253876 -1.96540509504544e-06 0  1.957228025861156 -1.965404800251308e-06 0  2.058205378244173 -1.965404666042154e-06 0  2.162836639564251 -1.965404597547497e-06 0  2.271254005665194 -1.965404568523037e-06 0  2.383594495177766 -1.96540455610152e-06 0  2.500000048374347 0.1024980345952111 0  2.500000048374354 0.2049980345949299 0  2.50000004837436 0.3074980345951798 0  2.383594495178021 0.4099980345954676 0  2.271254005665693 0.4099980345954803 0  2.162836639565008 0.4099980345955107 0  2.058205378245252 0.409998034595576 0  1.957228025862677 0.4099980345957088 0  1.85977695725617 0.4099980345960181 0  1.765729050202345 0.4099980345965785 0  1.674965467155514 0.4099980345977694 0  1.587371488139282 0.4099980345999241 0  1.502836437490954 0.4099980346040287 0  1.421253496896634 0.4099980346119648 0  1.342519564452443 0.4099980346254514 0  1.266535138308332 0.4099980346490451 0  1.193204225610739 0.4099980346935083 0  1.122434149080097 0.4099980347733221 0  1.054135494199876 0.4099980349069326 0  0.9882219299054009 0.4099980351720225 0  0.924610181754551 0.4099980356596319 0  0.8632198633836623 0.409998036595025 0  0.803973396316952 0.4099980384693593 0  0.7467959100889665 0.4099980422357267 0  0.6916151649537806 0.4099980495868967 0  0.6383614190756856 0.409998063928315 0  0.5869673855118154 0.4099980886422708 0  0.5373681113176241 0.4099981269720509 0  0.4895009251008745 0.4099981817685721 0  0.4433053534038252 0.4099982503510557 0  0.3987230007848738 0.4099983280901249 0  0.3556975375702542 0.4099984086325258 0  0.3141745950864866 0.4099984838321286 0  0.2741016981969498 0.4099985462210447 0  0.2354282220799959 0.4099985910210686 0  0.1981052787715231 0.4099986204517857 0  0.1620857191819974 0.4099986377129237 0  0.1273240269771765 0.4099986473378869 0  0.09377627051986019 0.4099986528836413 0  0.06140004861304837 0.4099986557679912 0  0.03015446575939289 0.4099986572672127 0  0.2497468076502589 0.2050254481002335 0  0.2497468076502614 0.1949745518997913 0  0.2469965137201149 0.18293105599716 0  0.2439893622531415 0.1762307555580675 0  0.2400332053012798 0.1700433190691452 0  0.2352133900048423 0.1645021827181888 0  0.229633896593144 0.1597268613287995 0  0.2234150945163264 0.155820366817751 0  0.216691145451215 0.1528669698999484 0  0.2096071088941573 0.1509303820360433 0  0.2023158128362712 0.150052378196299 0  0.1949745564015144 0.1502518994459355 0  0.1877417167045748 0.1515246391740573 0  0.1807733317932799 0.1538431392572298 0  0.1742197345997431 0.1571573802763843 0  0.1682223094900066 0.1613958619432259 0  0.1629104423404849 0.1664671445082176 0  0.1583987289832656 0.1722618222212974 0  0.1547845031986904 0.1786548829756851 0  0.1521457366661753 0.185508405642676 0  0.1505393570513322 0.1926745352283708 0  0.1505393599323473 0.2073228107662745 0  0.1521457424562009 0.2144889413224171 0  0.1547845118371298 0.2213424656712075 0  0.1583987405167568 0.2277355290293469 0  0.1629104567256785 0.233530210436779 0  0.16822232678532 0.2386014983312133 0  0.1742197547477281 0.2428399871659167 0  0.1807733548465335 0.2461542381286989 0  0.1877417426595031 0.2484727518776703 0  0.1949745852789496 0.2497455104359738 0  0.20231584460538 0.2499450565720856 0  0.2096071436213999 0.2490670874639004 0  0.2166911830441431 0.2471305453070352 0  0.2234151349621321 0.2441772122415085 0  0.2296339397457596 0.2402708043440877 0  0.2352134355065604 0.2354956054564989 0  0.2400332523957384 0.2299546405494488 0  0.2439894088264531 0.2237674747591261 0  0.246996553898113 0.2170676383268766 0  0.2564581338433488 0.2099993636149987 0  0.2639264452102501 0.2099991482101951 0  0.2713947548849793 0.209999007847455 0  0.2788630566439603 0.2099988993856044 0  0.2863313597419657 0.2099988093745912 0  0.2937996625689592 0.2099987302396967 0  0.3012679647912225 0.2099986582575115 0  0.3087362660198796 0.2099986046580595 0  0.3162045720097171 0.2099985536125332 0  0.3236728723475797 0.2099985063058312 0  0.331141178828024 0.2099984634147265 0  0.3386094783837543 0.209998423932572 0  0.3460777837804688 0.2099983858984171 0  0.3535460839426533 0.2099983444528491 0  0.3610143839615612 0.2099983240374357 0  0.3684826880776831 0.2099982998618579 0  0.3759509863861445 0.2099982743545122 0  0.3834192901683013 0.2099982505285067 0  0.3908875882113493 0.209998227353713 0  0.3983558919849718 0.2099982055278359 0  0.4058241895974231 0.2099981835628719 0  0.4132924928352377 0.209998160310593 0  0.4207607905527639 0.2099981318178239 0  0.4282290899632148 0.2099981210238043 0  0.4356973933218571 0.2099981056871029 0  0.4431656924356194 0.2099980888031932 0  0.4506339964435431 0.2099980716550492 0  0.4581022956527692 0.2099980553061918 0  0.4655706005074992 0.2099980395782095 0  0.4730388997370635 0.2099980245531776 0  0.4805072054326727 0.2099980099580125 0  0.4879755054204953 0.2099979962876114 0  0.4954438124483695 0.2099979823485377 0  0.5029121127021935 0.2099979711880716 0  0.5103804201509701 0.2099979621639494 0  0.5178487210672802 0.2099979541028038 0  0.5253170302622184 0.209997945810838 0  0.5327853314990227 0.2099979379188337 0  0.5402536408755323 0.2099979320745522 0  0.5477219428454742 0.2099979287602644 0  0.5551902528007304 0.2099979234222776 0  0.5626585560604311 0.209997912745413 0  0.5701268571260319 0.2099979301462677 0  0.5775951650185847 0.2099979414962965 0  0.5850634652241283 0.2099979480160456 0  0.5925317685012611 0.2099979593493371 0  0.6000000662032628 0.2049979660075146 0  0.6000000551157296 0.1949979672310241 0  0.5925317498363336 0.1899979573602222 0  0.5850634505792693 0.1899979431134428 0  0.5775951439854295 0.1899979312273852 0  0.5701268436514063 0.1899979197268862 0  0.5626585377766419 0.1899979033575333 0  0.5551902302458182 0.1899979112268354 0  0.5477219297905156 0.1899979130534278 0  0.5402536204802598 0.1899979151836788 0  0.532785320272159 0.1899979193243834 0  0.5253170100605701 0.1899979252994097 0  0.5178487084401925 0.1899979327801091 0  0.5103803987956107 0.1899979414188156 0  0.5029120983888266 0.1899979512210724 0  0.49544378909507 0.1899979627958697 0  0.4879754886582934 0.1899979759704159 0  0.4805071797315889 0.189997990432524 0  0.473038878351589 0.1899980056716235 0  0.4655705699727633 0.1899980218688645 0  0.458102269631821 0.1899980387616844 0  0.4506339623807202 0.1899980564782761 0  0.4431656619738084 0.1899980748520828 0  0.4356973546350096 0.1899980936715396 0  0.4282290531294288 0.1899981116967302 0  0.4207607468543537 0.1899981250747017 0  0.4132924417174122 0.1899981546832768 0  0.4058241411132277 0.1899981806312472 0  0.3983558355678442 0.1899982041987195 0  0.3908875343216278 0.189998228226813 0  0.3834192284969829 0.1899982525821584 0  0.3759509268882594 0.1899982775614255 0  0.3684826212183477 0.1899983034358196 0  0.3610143203462052 0.1899983278138365 0  0.3535460146151227 0.1899983496274984 0  0.3460777078104637 0.1899983911691738 0  0.3386094061823579 0.1899984306602189 0  0.3311410994383859 0.1899984705681156 0  0.3236727987726902 0.189998513494043 0  0.3162044932388075 0.1899985605011623 0  0.3087361928902905 0.1899986105588118 0  0.3012678878748015 0.1899986635628658 0  0.2937995848387196 0.1899987346698265 0  0.2863312825203607 0.189998813225319 0  0.2788629803664894 0.1899989027289811 0  0.2713946744765492 0.1899990117338317 0  0.2639263744454564 0.1899991543503236 0  0.2564580748924798 0.1899993677943
[...]
<PointData  Vectors="f_30-0"> 
<DataArray  type="Float64"  Name="f_30-0"  NumberOfComponents="3" format="ascii">0.0000000000000000e+00 0.0000000000000000e+00 0.0000000000000000e+00  0.0000000000000000e+00 0.0000000000000000e+00 0.0000000000000000e+00  0.0000000000000000e+00 0.0000000000000000e+00 0.0000000000000000e+00  0.0000000000000000e+00 0.0000000000000000e+00 0.0000000000000000e+00  1.3007148586480543e-02 -6.4139061176164414e-02 0.0000000000000000e+00  3.3884142502277045e-02 -5.7784660081051174e-02 0.0000000000000000e+00  0.0000000000000000e+00 0.0000000000000000e+00 0.0000000000000000e+00  0.0000000000000000e+00 0.0000000000000000e+00 0.0000000000000000e+00  0.0000000000000000e+00 0.0000000000000000e+00 0.0000000000000000e+00  0.0000000000000000e+00 0.0000000000000000e+00 0.0000000000000000e+00  6.5230561424651154e-02 -1.4703770190583684e-01 0.0000000000000000e+00  0.0000000000000000e+00 0.0000000000000000e+00 0.0000000000000000e+00  0.0000000000000000e+00 0.0000000000000000e+00 0.0000000000000000e+00  0.0000000000000000e+00 0.0000000000000000e+00 0.0000000000000000e+00  0.0000000000000000e+00 0.0000000000000000e+00 0.0000000000000000e+00  0.0000000000000000e+00 0.0000000000000000e+00 0.0000000000000000e+00  0.0000000000000000e+00 0.0000000000000000e+00 0.0000000000000000e+00  0.0000000000000000e+00 0.0000000000000000e+00 0.0000000000000000e+00  0.0000000000000000e+00 0.0000000000000000e+00 0.0000000000000000e+00  0.0000000000000000e+00 0.0000000000000000e+00 0.0000000000000000e+00  0.0000000000000000e+00 0.0000000000000000e+00 0.0000000000000000e+00  0.0000000000000000e+00 0.0000000000000000e+00 0.0000000000000000e+00  0.0000000000000000e+00 0.0000000000000000e+00 0.0000000000000000e+00  0.0000000000000000e+00 0.0000000000000000e+00 0.0000000000000000e+00  0.0000000000000000e+00 0.0000000000000000e+00 0.0000000000000000e+00  0.0000000000000000e+00 0.0000000000000000e+00 0.0000000000000000e+00  0.0000000000000000e+00 0.0000000000000000e+00 0.0000000000000000e+00  0.0000000000000000e+00 0.0000000000000000e+00 0.0000000000000000e+00  0.0000000000000000e+00 0.0000000000000000e+00 0.0000000000000000e+00  0.0000000000000000e+00 0.0000000000000000e+00 0.0000000000000000e+00  0.0000000000000000e+00 0.0000000000000000e+00 0.0000000000000000e+00  0.0000000000000000e+00 0.0000000000000000e+00 0.0000000000000000e+00  0.0000000000000000e+00 0.0000000000000000e+00 0.0000000000000000e+00  0.0000000000000000e+00 0.0000000000000000e+00 0.0000000000000000e+00  0.0000000000000000e+00 0.0000000000000000e+00 0.0000000000000000e+00  0.0000000000000000e+00 0.0000000000000000e+00 0.0000000000000000e+00  0.0000000000000000e+00 0.0000000000000000e+00 0.0000000000000000e+00  0.0000000000000000e+00 0.0000000000000000e+00 0.0000000000000000e+00  0.0000000000000000e+00 0.0000000000000000e+00 0.0000000000000000e+00  0.0000000000000000e+00 0.0000000000000000e+00 0.0000000000000000e+00  0.0000000000000000e+00 0.0000000000000000e+00 0.0000000000000000e+00  0.0000000000000000e+00 0.0000000000000000e+00 0.0000000000000000e+00  0.0000000000000000e+00 0.0000000000000000e+00 0.0000000000000000e+00  0.0000000000000000e+00 0.0000000000000000e+00 0.0000000000000000e+00  0.0000000000000000e+00 0.0000000000000000e+00 0.0000000000000000e+00  0.0000000000000000e+00 0.0000000000000000e+00 0.0000000000000000e+00  0.0000000000000000e+00 0.0000000000000000e+00 0.0000000000000000e+00  0.0000000000000000e+00 0.0000000000000000e+00 0.0000000000000000e+00  0.0000000000000000e+00 0.0000000000000000e+00 0.0000000000000000e+00  0.0000000000000000e+00 0.0000000000000000e+00 0.0000000000000000e+00  0.0000000000000000e+00 0.0000000000000000e+00 0.0000000000000000e+00  0.0000000000000000e+00 0.0000000000000000e+00 0.0000000000000000e+00  0.0000000000000000e+00 0.0000000000000000e+00 0.0000000000000000e+00  0.0000000000000000e+00 0.0000000000000000e+00 0.0000000000000000e+00  0.0000000000000000e+00 0.0000000000000000e+00 0.0000000000000000e+00  0.0000000000000000e+00 0.0000000000000000e+00 0.0000000000000000e+00  0.0000000000000000e+00 0.0000000000000000e+00 0.0000000000000000e+00  0.0000000000000000e+00 0.0000000000000000e+00 0.0000000000000000e+00  0.0000000000000000e+00 0.0000000000000000e+00 0.0000000000000000e+00  0.0000000000000000e+00 0.0000000000000000e+00 0.0000000000000000e+00  0.0000000000000000e+00 0.0000000000000000e+00 0.0000000000000000e+00  0.0000000000000000e+00 0.0000000000000000e+00 0.0000000000000000e+00  6.3997515149615231e-09 2.0728942193733032e-09 0.0000000000000000e+00  -2.1543000684348971e-10 2.7677797193199340e-09 0.0000000000000000e+00  -6.6633665035414514e-09 2.4996831103475157e-09 0.0000000000000000e+00  0.0000000000000000e+00 0.0000000000000000e+00 0.0000000000000000e+00  0.0000000000000000e+00 0.0000000000000000e+00 0.0000000000000000e+00  0.0000000000000000e+00 0.0000000000000000e+00 0.0000000000000000e+00  0.0000000000000000e+00 0.0000000000000000e+00 0.0000000000000000e+00  0.0000000000000000e+00 0.0000000000000000e+00 0.0000000000000000e+00  0.0000000000000000e+00 0.0000000000000000e+00 0.0000000000000000e+00  0.0000000000000000e+00 0.0000000000000000e+00 0.0000000000000000e+00  0.0000000000000000e+00 0.0000000000000000e+00 0.0000000000000000e+00  0.0000000000000000e+00 0.0000000000000000e+00 0.0000000000000000e+00  0.0000000000000000e+00 0.0000000000000000e+00 0.0000000000000000e+00  0.0000000000000000e+00 0.0000000000000000e+00 0.0000000000000000e+00  0.0000000000000000e+00 0.0000000000000000e+00 0.0000000000000000e+00  0.0000000000000000e+00 0.0000000000000000e+00 0.0000000000000000e+00  0.0000000000000000e+00 0.0000000000000000e+00 0.0000000000000000e+00  0.0000000000000000e+00 0.0000000000000000e+00 0.0000000000000000e+00  0.0000000000000000e+00 0.0000000000000000e+00 0.0000000000000000e+00  0.0000000000000000e+00 0.0000000000000000e+00 0.0000000000000000e+00  0.0000000000000000e+00 0.0000000000000000e+00 0.0000000000000000e+00  0.0000000000000000e+00 0.0000000000000000e+00 0.0000000000000000e+00  0.0000000000000000e+00 0.0000000000000000e+00 0.0000000000000000e+00  0.0000000000000000e+00 0.0000000000000000e+00 0.0000000000000000e+00  0.0000000000000000e+00 0.0000000000000000e+00 0.0000000000000000e+00  0.0000000000000000e+00 0.0000000000000000e+00 0.0000000000000000e+00  0.0000000000000000e+00 0.0000000000000000e+00 0.0000000000000000e+00  0.0000000000000000e+00 0.0000000000000000e+00 0.0000000000000000e+00  0.0000000000000000e+00 0.0000000000000000e+00 0.0000000000000000e+00  0.0000000000000000e+00 0.0000000000000000e+00 0.0000000000000000e+00  0.0000000000000000e+00 0.0000000000000000e+00 0.0000000000000000e+00  0.0000000000000000e+00 0.0000000000000000e+00 0.0000000000000000e+00  0.0000000000000000e+00 0.0000000000000000e+00 0.0000000000000000e+00  0.0000000000000000e+00 0.0000000000000000e+00 0.0000000000000000e+00  0.0000000000000000e+00 0.0000000000000000e+00 0.0000000000000000e+00  0.0000000000000000e+00 0.0000000000000000e+00 0.0000000000000000e+00  0.0000000000000000e+00 0.0000000000000000e+00 0.0000000000000000e+00  0.0000000000000000e+00 0.0000000000000000e+00 0.0000000000000000e+00  0.0000000000000000e+00 0.0000000000000000e+00 0.0000000000000000e+00  0.0000000000000000e+00 0.0000000000000000e+00 0.0000000000000000e+00  0.0000000000000000e+00 0.0000000000000000e+00 0.0000000000000000e+00  0.0000000000000000e+00 0.0000000000000000e+00 0.0000000000000000e+00  0.0000000000000000e+00 0.0000000000000000e+00 0.0000000000000000e+00  0.0000000000000000e+00 0.0000000000000000e+00 0.0000000000000000e+00  0.0000000000000000e+00 0.0000000000000000e+00 0.0000000000000000e+00  0.0000000000000000e+00 0.0000000000000000e+00 0.0000000000000000e+00  0.0000000000000000e+00 0.0000000000000000e+00 0.0000000000000000e+00  0.0000000000000000e+00 0.0000000000000000e+00 0.0000000000000000e+00  0.0000000000000000e+00 0.0000000000000000e+00 0.0000000000000000e+00  0.0000000000000000e+00 0.0000000000000000e+00 0.0000000000000000e+00  0.0000000000000000e+00 0.0000000000000000e+00 0.0000000000000000e+00  0.0000000000000000e+00 0.0000000000000000e+00 0.0000000000000000e+00  0.0000000000000000e+00 0.0000000000000000e+00 0.0000000000000000e+00  0.0000000000000000e+00 0.0000000000000000e+00 0.0000000000000000e+00  0.0000000000000000e+00 0.0000000000000000e+00 0.0000000000000000e+00  0.0000000000000000e+00 0.0000000000000000e+00 0.0000000000000000e+00  0.0000000000000000e+00 0.0000000000000000e+00 0.0000000000000000e+00  0.0000000000000000e+00 0.0000000000000000e+00 0.0000000000000000e+00  0.0000000000000000e+00 0.0000000000000000e+00 0.0000000000000000e+00  0.0000000000000000e+00 0.0000000000000000e+00 0.0000000000000000e+00  0.0000000000000000e+00 0.0000000000000000e+00 0.0000000000000000e+00  0.0000000000000000e+00 0.0000000000000000e+00 0.0000000000000000e+00  0.0000000000000000e+00 0.0000000000000000e+00 0.0000000000000000e+00  0.0000000000000000e+00 0.0000000000000000e+00 0.0000000000000000e+00  0.0000000000000000e+00 0.0000000000000000e+00 0.0000000000000000e+00  0.0000000000000000e+00 0.0000000000000000e+00 0.0000000000000000e+00  0.0000000000000000e+00 0.0000000000000000e+00 0.0000000000000000e+00  0.0000000000000000e+00 0.0000000000000000e+00 0.0000000000000000e+00  0.0000000000000000e+00 0.0000000000000000e+00 0.0000000000000000e+00  0.0000000000000000e+00 0.0000000000000000e+00 0.0000000000000000e+00  0.0000000000000000e+00 0.0000000000000000e+00 0.0000000000000000e+00  0.0000000000000000e+00 0.0000000000000000e+00 0.0000000000000000e+00  0.0000000000000000e+00 0.0000000000000000e+00 0.0000000000000000e+00  0.0000000000000000e+00 0.0000000000000000e+00 0.0000000000000000e+00  0.0000000000000000e+00 0.0000000000000000e+00 0.0000000000000000e+00  0.0000000000000000e+00 0.0000000000000000e+00 0.0000000000000000e+00  0.0000000000000000e+00 0.0000000000000000e+00 0.0000000000000000e+00  0.0000000000000000e+00 0.0000000000000000e+00 0.0000000000000000e+00  0.0000000000000000e+00 0.0000000000000000e+00 0.0000000000000000e+00  0.0000000000000000e+00 0.0000000000000000e+00 0.0000000000000000e+00  0.0000000000000000e+00 0.0000000000000000e+00 0.0000000000000000e+00  9.9439209033516496e-02 3.2898034333058535e-01 0.0000000000000000e+00  7.9418311857889223e-02 2.6884464290122795e-01 0.0000000000000000e+00  8.8346610279886245e-02 1.7244004688374731e-01 0.0000000000000000e+00  4.0901629466571658e-02 5.7845210257228288e-02 0.0000000000000000e+00  3.6664096860981488e-02 1.6544659115684420e-03 0.0000000000000000e+00  2.5108199199214865e-02 -8.4154568854189857e-02 0.0000000000000000e+00  3.3890399007108774e-02 -1.2932123707649373e-01 0.0000000000000000e+00  -8.6202002366433609e-03 -1.6339262135380744e-01 0.0000000000000000e+00  3.7951912030391936e-02 -1.7433713963290592e-01 0.0000000000000000e+00  -9.4486845861731159e-03 -1.9091659275382808e-01 0.0000000000000000e+00  3.9996314384731523e-02 -2.0915186225011448e-01 0.0000000000000000e+00  -7.7751568452398322e-03 -2.1111036738970043e-01 0.0000000000000000e+00  4.9511325705824005e-02 -2.3254781196381982e-01 0.0000000000000000e+00  7.7682798911166738e-03 -2.3246591341874551e-01 0.0000000000000000e+00  2.0346519352759996e-03 -2.1680446743352544e-01 0.0000000000000000e+00  2.3160281714859617e-02 -1.9036414527206166e-01 0.0000000000000000e+00  -2.8316808231746899e-03 -2.0412327044330736e-01 0.0000000000000000e+00  2.2087328027813102e-02 -1.8984618110703305e-01 0.0000000000000000e+00  -1.0060604936739263e-02 -1.9372352670093035e-01 0.0000000000000000e+00  2.5081533047502502e-02 -1.9564638165715145e-01 0.0000000000000000e+00  -2.0923068320716446e-02 -1.9594386075576781e-01 0.0000000000000000e+00  3.3711092105221080e-02 -2.0500280289529119e-01 0.0000000000000000e+00  -1.5207877308656678e-02 -2.0889805858088165e-01 0.0000000000000000e+00  -2.5782954698684794e-02 -2.1122268588382512e-01 0.0000000000000000e+00  -5.9281230374232075e-04 -2.2580485930812530e-01 0.0000000000000000e+00  -2.2392801583441369e-02 -2.2811047881292770e-01 0.0000000000000000e+00  -3.4878463702816896e-03 -2.4527449852093419e-01 0.0000000000000000e+00  -3.6981334475204207e-02 -2.5852983938672069e-01 0.0000000000000000e+00  1.1930787084375212e-02 -2.6338590132807155e-01 0.0000000000000000e+00  -4.9749075721220420e-02 -2.6885555932482097e-01 0.0000000000000000e+00  1.5350821493406483e-02 -2.8553618096515460e-01 0.0000000000000000e+00  -4.5960937040333161e-02 -2.8003570411778195e-01 0.0000000000000000e+00  1.0773719956065807e-02 -3.3343704234180743e-01 0.0000000000000000e+00  -3.7980884542570176e-02 -3.3372878648297338e-01 0.0000000000000000e+00  1.9951836025978102e-02 -3.0584463879757190e-01 0.0000000000000000e+00  -4.1739633646333242e-02 -2.9044592491995447e-01 0.0000000000000000e+00  2.8289347727871006e-02 -3.0062160578307551e-01 0.0000000000000000e+00  -4.3346044865523528e-02 -3.3267074343337621e-01 0.0000000000000000e+00  4.3957481090147632e-02 -3.4077156675731063e-01 0.0000000000000000e+00  -2.3026886117640095e-02 -3.0851232503254356e-01 0.0000000000000000e+00  5.1990289301324343e-02 -3.0231580135303959e-01 0.0000000000000000e+00  2.1962715947791818e-02 -2.9167744595573325e-01 0.0000000000000000e+00  -7.2743862059485602e-03 -2.5838392187043463e-01 0.0000000000000000e+00  6.2859726190385948e-02 -2.0173906135152114e-01 0.0000000000000000e+00  2.4274681667507320e-02 -2.4939394091055053e-01 0.0000000000000000e+00  1.1173269305882831e-01 -2.1180363082514764e-01 0.0000000000000000e+00  1.0944550980445204e-01 -1.5617042491381039e-01 0.0000000000000000e+00  -1.3107562316477328e-02 -1.1806756824081686e-01 0.0000000000000000e+00  5.2362438567667346e-03 -1.4257629364249411e-01 0.0000000000000000e+00  6.3737315434180986e-02 -1.9730788620792164e-01 0.0000000000000000e+00  6.1407804674475635e-03 -2.1909562475901398e-01 0.0000000000000000e+00  5.8848051556787448e-02 -2.6509765927783346e-01 0.0000000000000000e+00  2.5411467076540295e-02 -2.6025227893332969e-01 0.0000000000000000e+00  -2.3134070728863809e-02 -2.8869614269512772e-01 0.0000000000000000e+00  5.6463897047788293e-02 -2.8100235586199923e-01 0.0000000000000000e+00  -2.9109567255701900e-02 -2.9081636486324824e-01 0.0000000000000000e+00  4.8339626490267823e-02 -2.9653373060927957e-01 0.0000000000000000e+00  -3.4810346541708462e-02 -2.9629229598679263e-01 0.0000000000000000e+00  3.9313559510048814e-02 -2.8995681566315606e-01 0.0000000000000000e+00  -3.6506625748710088e-02 -2.8601495382397635e-01 0.0000000000000000e+00  3.7251571461910632e-02 -2.7943033484832897e-01 0.0000000000000000e+00  -4.2471635285218239e-02 -2.7503953982494012e-01 0.0000000000000000e+00  2.7995452869311259e-02 -2.6854957142514568e-01 0.0000000000000000e+00  -4.1772412392532383e-02 -2.6190966671270494e-01 0.0000000000000000e+00  2.3464257487881258e-02 -2.5185459044785385e-01 0.0000000000000000e+00  -4.1595765249004775e-02 -2.4194655013743546e-01 0.0000000000000000e+00  2.0799237928735042e-02 -2.2825525279405204e-01 0.0000000000000000e+00  -3.8971781968132731e-02 -2.2158993085059556e-01 0.0000000000000000e+00  1.9927446482882669e-02 -2.1697888168301310e-01 0.0000000000000000e+00  -3.4877568597083304e-02 -2.0950222800826998e-01 0.0000000000000000e+00  2.0457359855938301e-02 -2.1327386147185040e-01 0.0000000000000000e+00  -1.3315127035360048e-02 -2.0439415618273618e-01 0.0000000000000000e+00  -3.0362882844439897e-02 -2.0618776883413231e-01 0.0000000000000000e+00  5.1843052905022249e-03 -1.9051138473340903e-01 0.0000000000000000e+00  -2.5826427865333942e-02 -2.0004540040422392e-01 0.0000000000000000e+00  9.0530770235047135e-03 -2.0466908445838569e-01 0.0000000000000000e+00  -2.4129835890361665e-02 -2.0737850308924641e-01 0.0000000000000000e+00  8.6793166410099806e-03 -2.0877414318602261e-01 0.0000000000000000e+00  -2.1866377739781191e-02 -2.0406302155300940e-01 0.0000000000000000e+00  1.2398273909987345e-02 -2.1641873483560994e-01 0.0000000000000000e+00  -1.7321945994765791e-03 -2.2023232916391011e-01 0.0000000000000000e+00  -4.9777431547862433e-02 -2.3141172575841992e-01 0.0000000000000000e+00  8.0865961986022385e-03 -2.1260108112339626e-01 0.0000000000000000e+00  -5.3553973709925776e-02 -2.1057678264977805e-01 0.0000000000000000e+00  1.9623129785047528e-03 -1.9577086342385036e-01 0.0000000000000000e+00  -5.3668524870125862e-02 -1.7879765854763505e-01 0.0000000000000000e+00  -2.0647153029426930e-03 -1.6067303193411334e-01 0.0000000000000000e+00  -4.1619816784904576e-02 -1.2820206058941297e-01 0.0000000000000000e+00  -3.5678178723516252e-02 -8.7086899506348445e-02 0.0000000000000000e+00  -3.8604272438239100e-02 -8.5591402218346390e-03 0.0000000000000000e+00  -2.8147727379126766e-02 4.2624809934386367e-02 0.0000000000000000e+00  -7.5554875216056763e-02 1.6567735920806076e-01 0.0000000000000000e+00  -1.0048230806124282e-01 3.0205395773585991e-01 0.0000000000000000e+00  -1.2434098384752991e-01 3.3833828697088553e-01 0.0000000000000000e+00  -6.6730733220984779e-03 -1.6724549411149675e-01 0.0000000000000000e+00  -9.4456407575525692e-03 1.3137426655411685e-01 0.0000000000000000e+00  6.3912507072712125e-04 1.8336857419311767e-01 0.0000000000000000e+00  9.4346737497829816e-03 2.3654861528318702e-01 0.0000000000000000e+00  -1.1017653112971952e-02 -8.9794433409316490e-02 0.0000000000000000e+00  2.3121890972926046e-03 2.4713813465491744e-01 0.0000000000000000e+00  4.5240776200966117e-03 2.2014519202259445e-02 0.0000000000000000e+00  1.8932952442597291e-03 2.3813568131739751e-01 0.0000000000000000e+00  4.5705879542941117e-03 1.3551870469556868e-01 0.0000000000000000e+00  5.9382689496264088e-04 1.6003117226138114e-01 0.0000000000000000e+00  -7.2416895817810755e-03 2.3781414503398435e-01 0.0000000000000000e+00  4.7870743714679333e-03 1.6714198609704720e-01 0.0000000000000000e+00  -2.8242133584632993e-03 2.1015207348661527e-01 0.0000000000000000e+00  -3.6013124332612257e-03 1.6571011702301422e-01 0.0000000000000000e+00  5.9233212832614105e-04 1.6106008909496933e-01 0.0000000000000000e+00  -3.1828710580901367e-03 1.9694504483740291e-01 0.0000000000000000e+00  2.9895571587786811e-03 2.2820518630872130e-01 0.0000000000000000e+00  -3.0965298177729854e-03 1.5889265377990508e-01 0.0000000000000000e+00  -9.0365061403005725e-04 1.8176894438560601e-01 0.0000000000000000e+00  -1.1024488607128161e-03 1.5646849828110432e-01 0.0000000000000000e+00  -6.0306820652755097e-03 1.6909386171548635e-01 0.0000000000000000e+00  2.8499641249242172e-03 1.3449622415986967e-01 0.0000000000000000e+00  -1.3261715071778530e-03 1.4221297714899228e-01 0.0000000000000000e+00  -4.5818935449550065e-03 1.8915627921619249e-01 0.0000000000000000e+00  3.7532169606079428e-03 8.4094884373006246e-02 0.0000000000000000e+00  1.0057356764828922e-02 1.3466993827406670e-01 0.0000000000000000e+00  -4.2347604921867558e-02 -1.3783355228368235e-01 0.0000000000000000e+00  -3.4914487346064480e-03 1.6729954830471191e-01 0.0000000000000000e+00  -7.7825639051335854e-03 1.7569002975422268e-01 0.0000000000000000e+00  2.9982876033613673e-02 -7.4689350687801633e-03 0.0000000000000000e+00  1.7546544535310641e-03 1.0711370696885279e-01 0.0000000000000000e+00  -3.7192726728727033e-03 1.4984531847798385e-01 0.0000000000000000e+00  3.9892475738119631e-05 1.6139183912753335e-01 0.0000000000000000e+00  -9.0083814918764556e-03 1.1583490139265439e-01 0.0000000000000000e+00  5.5045923572557035e-04 1.3809942069789585e-01 0.0000000000000000e+00  3.6076901874264869e-03 1.1374879235642259e-01 0.0000000000000000e+00  -2.5556716301482298e-03 1.1434213968091851e-01 0.0000000000000000e+00  -1.3166204152137520e-03 1.3413390969017977e-01 0.0000000000000000e+00  -2.0880364629885253e-03 1.7060660295846899e-01 0.0000000000000000e+00  3.4140159848239336e-03 1.2366968526365993e-01 0.0000000000000000e+00  1.8958565498783558e-03 1.1795946078625719e-01 0.0000000000000000e+00  -3.4151355257002275e-02 -1.7870735489996359e-01 0.0000000000000000e+00  4.3287082570546399e-02 -1.6835076037641258e-01 0.0000000000000000e+00  -7.1308639564833687e-02 9.6160372943104949e-02 0.0000000000000000e+00  2.5747000095493494e-02 -1.3915171949980523e-01 0.0000