<?xml version="1.0"?>
<VTKFile type="UnstructuredGrid"  version="0.1"  >
<UnstructuredGrid>
<Piece  NumberOfPoints="1419" NumberOfCells="2698">
<Points>
<DataArray  type="Float64"  NumberOfComponents="3"  format="ascii">2.355297789128757e-07 -2.895663184858699e-06 0  2.669894057933384e-07 0.4099970905081859 0  2.500000539628741 -4.466340695571944e-06 0  2.500000539628793 0.4099955336593405 0  0.6000006016316165 0.1899953769424277 0  0.6000006627147154 0.2099953625484787 0  0.25 0.2 0  0.1500002483041232 0.199997126525123 0  0.2489897948556636 0.21 0  0.2489897948556636 0.19 0  0.6000006522295556 0.1999953499660928 0  2.665731086698024e-07 0.3807113771611348 0  2.653966913751318e-07 0.3514256654284862 0  2.634587299170035e-07 0.3221399549304104 0  2.60823047128768e-07 0.292854244848413 0  2.576547932452918e-07 0.2635685345536432 0  2.540958580018219e-07 0.2342828236253302 0  2.503266010271784e-07 0.2049971114322634 0  2.466319976306968e-07 0.1757113980816339 0  2.432814397665609e-07 0.1464256834546335 0  2.404236105570991e-07 0.1171399677888534 0  2.382602817244452e-07 0.08785425146864946 0  2.367086772418438e-07 0.05856853505748863 0  2.358118554239311e-07 0.02928281917793894 0  0.03015467283686685 -2.89628868382763e-06 0  0.06140025415170228 -2.898555504388474e-06 0  0.09377647348671624 -2.903699480262906e-06 0  0.127324226454321 -2.913882633346595e-06 0  0.1620859147197617 -2.933000740971011e-06 0  0.1981054710681763 -2.970668006477156e-06 0  0.2354284138878497 -3.041472967081132e-06 0  0.2741018944083822 -3.155444675869727e-06 0  0.3141748021964629 -3.314895060936034e-06 0  0.3556977646814433 -3.515467204312407e-06 0  0.3987232564391651 -3.733557262065163e-06 0  0.4433056457268411 -3.943243470610082e-06 0  0.4895012594197323 -4.126324816529623e-06 0  0.5373684879345062 -4.267074380400437e-06 0  0.5869677993076843 -4.361110389708438e-06 0  0.6383618619653779 -4.418451391956418e-06 0  0.6916156271687657 -4.446925540047099e-06 0  0.746796384116304 -4.459605053227385e-06 0  0.8039738774937645 -4.46487748031923e-06 0  0.8632203487310985 -4.466707623427901e-06 0  0.9246106695510807 -4.467103492764609e-06 0  0.9882224190905969 -4.466998730475833e-06 0  1.054135984252733 -4.4668189884466e-06 0  1.122434639619989 -4.466653738722872e-06 0  1.193204716457735 -4.466530817450089e-06 0  1.266535629334561 -4.466451236260461e-06 0  1.342520055577748 -4.466403951415574e-06 0  1.421253988079252 -4.46637583359738e-06 0  1.502836928706948 -4.466359293579884e-06 0  1.58737197937304 -4.466350371725784e-06 0  1.674965958398692 -4.466345644859235e-06 0  1.76572954145064 -4.466343127982048e-06 0  1.859777448507032 -4.466341890314262e-06 0  1.957228517114985 -4.466341241245793e-06 0  2.058205869498309 -4.466340945732948e-06 0  2.162837130818543 -4.466340794913181e-06 0  2.271254496919551 -4.466340731002988e-06 0  2.383594986432152 -4.46634070365141e-06 0  2.500000539628747 0.1024955336590707 0  2.500000539628768 0.2049955336587964 0  2.500000539628787 0.3074955336590536 0  2.383594986432462 0.4099955336593483 0  2.271254496920161 0.4099955336593767 0  2.162837130819546 0.4099955336594435 0  2.058205869499938 0.4099955336595872 0  1.957228517117667 0.4099955336598798 0  1.859777448511865 0.4099955336605606 0  1.765729541459316 0.4099955336617949 0  1.674965958415191 0.4099955336644183 0  1.587371979403847 0.4099955336691654 0  1.502836928764765 0.409995533678216 0  1.421253988188135 0.4099955336957335 0  1.342520055773438 0.409995533725562 0  1.266535629679431 0.4099955337779008 0  1.193204717069934 0.4099955338771968 0  1.122434640683351 0.4099955340569116 0  1.054135986014936 0.4099955343608398 0  0.9882224220367681 0.4099955349748088 0  0.9246106742981411 0.4099955361221579 0  0.863220356346992 0.4099955383631851 0  0.8039738894033438 0.4099955429333914 0  0.7467964022566781 0.4099955522514827 0  0.6916156535658562 0.4099955706580068 0  0.6383618983522049 0.4099956069151443 0  0.5869678470908045 0.409995669776146 0  0.5373685458814059 0.4099957676371995 0  0.4895013254180804 0.4099959078590047 0  0.4433057184367804 0.4099960832409489 0  0.39872333406116 0.4099962809540581 0  0.3556978446931809 0.4099964836520693 0  0.3141748818320814 0.4099966702295086 0  0.2741019694951408 0.4099968228773063 0  0.2354284823180946 0.409996931244497 0  0.1981055312453656 0.4099970018888086 0  0.1620859664435974 0.4099970431131516 0  0.1273242707650293 0.409997066027253 0  0.09377651197221211 0.4099970792114803 0  0.06140028863603617 0.4099970860607788 0  0.03015470497342099 0.409997089619311 0  0.2497468076502589 0.2050254481002335 0  0.2497468076502614 0.1949745518997913 0  0.2469966046601094 0.1829303440542747 0  0.2439894914794388 0.1762297756124188 0  0.2400333581991938 0.1700421748350811 0  0.2352135585487503 0.164500930995659 0  0.2296340767631034 0.1597255314441991 0  0.2234152834863456 0.1558189799840532 0  0.2166913412420909 0.1528655412221629 0  0.2096073099978399 0.1509289229208138 0  0.20231601840604 0.1500508954816871 0  0.1949747655416458 0.1502503997650415 0  0.1877419289028648 0.1515231265972105 0  0.1807735465556441 0.1538416173444916 0  0.174219951651637 0.1571558512718185 0  0.1682225285439615 0.161394327802148 0  0.1629106632620211 0.1664656064343444 0  0.1583989516043882 0.172260281283991 0  0.1547847274474667 0.1786533398776025 0  0.1521459624351905 0.1855068610134021 0  0.1505395843113713 0.192672989521582 0  0.1505395899513373 0.2073212642621794 0  0.1521459737715547 0.214487395068921 0  0.1547847443536604 0.2213409201877235 0  0.1583989741666213 0.2277339849463304 0  0.1629106913821132 0.2335286685405159 0  0.1682225623162438 0.238599959781106 0  0.1742199909459524 0.2428384532588133 0  0.1807735914786591 0.2461527106751164 0  0.1877419793673212 0.2484712336618253 0  0.1949748215902018 0.2497440048386253 0  0.2023160799664382 0.2499435676064266 0  0.2096073772005952 0.2490656215235701 0  0.2166914138103295 0.2471291098806201 0  0.2234153613148419 0.2441758192525975 0  0.2296341597701941 0.240269467291908 0  0.2352136458940932 0.2354943469953722 0  0.240033448636761 0.2299534891421486 0  0.2439895813647246 0.2237664861433772 0  0.2469966829479462 0.2170669187441215 0  0.2564582627365258 0.2099986904006207 0  0.2639266168710289 0.2099982539134098 0  0.2713949800741064 0.2099979691646153 0  0.2788632994386386 0.2099977383623073 0  0.2863316186987487 0.2099975411220311 0  0.2937999210749934 0.2099973729564766 0  0.3012682293320503 0.2099972258584492 0  0.3087365309146919 0.2099970877848726 0  0.3162048356082496 0.2099969603120786 0  0.3236731352452087 0.2099968424108594 0  0.3311414418567102 0.2099967331777909 0  0.3386097403317996 0.2099966316821046 0  0.3460780472991444 0.2099965325002944 0  0.3535463462249332 0.2099964281161205 0  0.3610146441295349 0.2099963624743071 0  0.3684829472376864 0.2099962901310792 0  0.3759512382344867 0.2099962160326125 0  0.3834195381717819 0.209996143979144 0  0.3908878257373909 0.2099960743471274 0  0.3983561241783101 0.2099960053570424 0  0.4058244084349776 0.2099959411980586 0  0.4132927072268612 0.2099958634167437 0  0.4207609865474471 0.2099957756691293 0  0.4282292980663765 0.2099957369778651 0  0.4356976260861538 0.2099956556832954 0  0.4431659473086293 0.2099956256476008 0  0.4506342835399027 0.2099956002812851 0  0.4581026033128514 0.2099955727000716 0  0.4655709512260535 0.2099954931941004 0  0.4730392745279194 0.2099954443331533 0  0.4805076209423383 0.2099954668355665 0  0.4879759351200314 0.2099954489786016 0  0.4954442669950815 0.2099953811946099 0  0.5029125772337978 0.209995344200294 0  0.5103809085261828 0.2099953669695968 0  0.517849218257691 0.2099953400581297 0  0.5253175497164164 0.2099953009699332 0  0.5327858702937837 0.2099952833119733 0  0.5402542196932587 0.2099952647744435 0  0.5477225508334671 0.2099952352406 0  0.5551908962368032 0.2099952522720382 0  0.5626592231236167 0.2099952382967596 0  0.5701275102301856 0.2099952776814056 0  0.5775958132510437 0.2099953108632513 0  0.5850641039675087 0.2099953065566382 0  0.5925323979822049 0.2099953153756524 0  0.6000006705507929 0.2049953475837216 0  0.600000621265609 0.1949953630383054 0  0.592532300383129 0.1899953552328212 0  0.5850640041186967 0.1899953219848622 0  0.5775956857328468 0.1899952918539317 0  0.5701273807688909 0.1899952634230672 0  0.5626590659213974 0.1899952232956467 0  0.5551907406872876 0.1899952321386627 0  0.5477224296572287 0.1899952267798319 0  0.5402540900827132 0.1899952289123683 0  0.5327857766047758 0.189995243195427 0  0.5253174430154691 0.1899952637395915 0  0.5178491348080789 0.1899952841958806 0  0.5103808144738663 0.189995301880492 0  0.5029125055059016 0.1899953192543901 0  0.4954441690817132 0.1899953435938342 0  0.4879758615190456 0.1899953725942033 0  0.4805075426974985 0.189995397876037 0  0.4730392274591204 0.1899954228354315 0  0.4655708783851797 0.1899954562691133 0  0.4581025643625618 0.1899955002391351 0  0.4506342433485188 0.1899955462944511 0  0.443165934942426 0.1899955912354676 0  0.4356975973400388 0.1899956433270812 0  0.428229286713193 0.1899957014354777 0  0.4207609665965204 0.1899957484974419 0  0.4132926555122727 0.1899958381526738 0  0.4058243556496627 0.1899959189921626 0  0.3983560450130742 0.1899959937242193 0  0.3908877443929711 0.1899960678401087 0  0.383419433768016 0.1899961412741241 0  0.3759511319078502 0.1899962153890478 0  0.3684828225545216 0.1899962908928412 0  0.3610145220203563 0.1899963643568504 0  0.3535462125325246 0.1899964337817736 0  0.3460779028781878 0.1899965364169132 0  0.3386096003228241 0.189996637019614 0  0.3311412915597856 0.189996740095524 0  0.3236729914216374 0.1899968489370104 0  0.3162046876173905 0.1899969660876624 0  0.3087363888075098 0.1899970921077548 0  0.3012680883410246 0.1899972308645094 0  0.2937997865305533 0.189997380680721 0  0.2863314758500177 0.1899975463179234 0  0.2788631685826385 0.1899977281463157 0  0.2713948209753878 0.1899979770722122 0  0.2639264825498776 0.1899983138277973 0  0.2564581426377431 0.1899987006776
[...]
<PointData  Vectors="f_30-0"> 
<DataArray  type="Float64"  Name="f_30-0"  NumberOfComponents="3" format="ascii">0.0000000000000000e+00 0.0000000000000000e+00 0.0000000000000000e+00  0.0000000000000000e+00 0.0000000000000000e+00 0.0000000000000000e+00  0.0000000000000000e+00 0.0000000000000000e+00 0.0000000000000000e+00  0.0000000000000000e+00 0.0000000000000000e+00 0.0000000000000000e+00  9.6249488045452719e-02 -1.9552952140774790e-01 0.0000000000000000e+00  2.0758401071156232e-01 -1.6703509765928554e-01 0.0000000000000000e+00  0.0000000000000000e+00 0.0000000000000000e+00 0.0000000000000000e+00  0.0000000000000000e+00 0.0000000000000000e+00 0.0000000000000000e+00  0.0000000000000000e+00 0.0000000000000000e+00 0.0000000000000000e+00  0.0000000000000000e+00 0.0000000000000000e+00 0.0000000000000000e+00  4.0176462570915999e-01 -3.5888568902681528e-01 0.0000000000000000e+00  0.0000000000000000e+00 0.0000000000000000e+00 0.0000000000000000e+00  0.0000000000000000e+00 0.0000000000000000e+00 0.0000000000000000e+00  0.0000000000000000e+00 0.0000000000000000e+00 0.0000000000000000e+00  0.0000000000000000e+00 0.0000000000000000e+00 0.0000000000000000e+00  0.0000000000000000e+00 0.0000000000000000e+00 0.0000000000000000e+00  0.0000000000000000e+00 0.0000000000000000e+00 0.0000000000000000e+00  0.0000000000000000e+00 0.0000000000000000e+00 0.0000000000000000e+00  0.0000000000000000e+00 0.0000000000000000e+00 0.0000000000000000e+00  0.0000000000000000e+00 0.0000000000000000e+00 0.0000000000000000e+00  0.0000000000000000e+00 0.0000000000000000e+00 0.0000000000000000e+00  0.0000000000000000e+00 0.0000000000000000e+00 0.0000000000000000e+00  0.0000000000000000e+00 0.0000000000000000e+00 0.0000000000000000e+00  0.0000000000000000e+00 0.0000000000000000e+00 0.0000000000000000e+00  0.0000000000000000e+00 0.0000000000000000e+00 0.0000000000000000e+00  0.0000000000000000e+00 0.0000000000000000e+00 0.0000000000000000e+00  0.0000000000000000e+00 0.0000000000000000e+00 0.0000000000000000e+00  0.0000000000000000e+00 0.0000000000000000e+00 0.0000000000000000e+00  0.0000000000000000e+00 0.0000000000000000e+00 0.0000000000000000e+00  0.0000000000000000e+00 0.0000000000000000e+00 0.0000000000000000e+00  0.0000000000000000e+00 0.0000000000000000e+00 0.0000000000000000e+00  0.0000000000000000e+00 0.0000000000000000e+00 0.0000000000000000e+00  0.0000000000000000e+00 0.0000000000000000e+00 0.0000000000000000e+00  0.0000000000000000e+00 0.0000000000000000e+00 0.0000000000000000e+00  0.0000000000000000e+00 0.0000000000000000e+00 0.0000000000000000e+00  0.0000000000000000e+00 0.0000000000000000e+00 0.0000000000000000e+00  0.0000000000000000e+00 0.0000000000000000e+00 0.0000000000000000e+00  0.0000000000000000e+00 0.0000000000000000e+00 0.0000000000000000e+00  0.0000000000000000e+00 0.0000000000000000e+00 0.0000000000000000e+00  0.0000000000000000e+00 0.0000000000000000e+00 0.0000000000000000e+00  0.0000000000000000e+00 0.0000000000000000e+00 0.0000000000000000e+00  0.0000000000000000e+00 0.0000000000000000e+00 0.0000000000000000e+00  0.0000000000000000e+00 0.0000000000000000e+00 0.0000000000000000e+00  0.0000000000000000e+00 0.0000000000000000e+00 0.0000000000000000e+00  0.0000000000000000e+00 0.0000000000000000e+00 0.0000000000000000e+00  0.0000000000000000e+00 0.0000000000000000e+00 0.0000000000000000e+00  0.0000000000000000e+00 0.0000000000000000e+00 0.0000000000000000e+00  0.0000000000000000e+00 0.0000000000000000e+00 0.0000000000000000e+00  0.0000000000000000e+00 0.0000000000000000e+00 0.0000000000000000e+00  0.0000000000000000e+00 0.0000000000000000e+00 0.0000000000000000e+00  0.0000000000000000e+00 0.0000000000000000e+00 0.0000000000000000e+00  0.0000000000000000e+00 0.0000000000000000e+00 0.0000000000000000e+00  0.0000000000000000e+00 0.0000000000000000e+00 0.0000000000000000e+00  0.0000000000000000e+00 0.0000000000000000e+00 0.0000000000000000e+00  0.0000000000000000e+00 0.0000000000000000e+00 0.0000000000000000e+00  0.0000000000000000e+00 0.0000000000000000e+00 0.0000000000000000e+00  0.0000000000000000e+00 0.0000000000000000e+00 0.0000000000000000e+00  0.0000000000000000e+00 0.0000000000000000e+00 0.0000000000000000e+00  0.0000000000000000e+00 0.0000000000000000e+00 0.0000000000000000e+00  0.0000000000000000e+00 0.0000000000000000e+00 0.0000000000000000e+00  0.0000000000000000e+00 0.0000000000000000e+00 0.0000000000000000e+00  0.0000000000000000e+00 0.0000000000000000e+00 0.0000000000000000e+00  1.1943802783691260e-08 4.3001745008073827e-09 0.0000000000000000e+00  -2.4023362107300044e-10 6.3829907968982592e-09 0.0000000000000000e+00  -1.2338741050678802e-08 4.8275090191802985e-09 0.0000000000000000e+00  0.0000000000000000e+00 0.0000000000000000e+00 0.0000000000000000e+00  0.0000000000000000e+00 0.0000000000000000e+00 0.0000000000000000e+00  0.0000000000000000e+00 0.0000000000000000e+00 0.0000000000000000e+00  0.0000000000000000e+00 0.0000000000000000e+00 0.0000000000000000e+00  0.0000000000000000e+00 0.0000000000000000e+00 0.0000000000000000e+00  0.0000000000000000e+00 0.0000000000000000e+00 0.0000000000000000e+00  0.0000000000000000e+00 0.0000000000000000e+00 0.0000000000000000e+00  0.0000000000000000e+00 0.0000000000000000e+00 0.0000000000000000e+00  0.0000000000000000e+00 0.0000000000000000e+00 0.0000000000000000e+00  0.0000000000000000e+00 0.0000000000000000e+00 0.0000000000000000e+00  0.0000000000000000e+00 0.0000000000000000e+00 0.0000000000000000e+00  0.0000000000000000e+00 0.0000000000000000e+00 0.0000000000000000e+00  0.0000000000000000e+00 0.0000000000000000e+00 0.0000000000000000e+00  0.0000000000000000e+00 0.0000000000000000e+00 0.0000000000000000e+00  0.0000000000000000e+00 0.0000000000000000e+00 0.0000000000000000e+00  0.0000000000000000e+00 0.0000000000000000e+00 0.0000000000000000e+00  0.0000000000000000e+00 0.0000000000000000e+00 0.0000000000000000e+00  0.0000000000000000e+00 0.0000000000000000e+00 0.0000000000000000e+00  0.0000000000000000e+00 0.0000000000000000e+00 0.0000000000000000e+00  0.0000000000000000e+00 0.0000000000000000e+00 0.0000000000000000e+00  0.0000000000000000e+00 0.0000000000000000e+00 0.0000000000000000e+00  0.0000000000000000e+00 0.0000000000000000e+00 0.0000000000000000e+00  0.0000000000000000e+00 0.0000000000000000e+00 0.0000000000000000e+00  0.0000000000000000e+00 0.0000000000000000e+00 0.0000000000000000e+00  0.0000000000000000e+00 0.0000000000000000e+00 0.0000000000000000e+00  0.0000000000000000e+00 0.0000000000000000e+00 0.0000000000000000e+00  0.0000000000000000e+00 0.0000000000000000e+00 0.0000000000000000e+00  0.0000000000000000e+00 0.0000000000000000e+00 0.0000000000000000e+00  0.0000000000000000e+00 0.0000000000000000e+00 0.0000000000000000e+00  0.0000000000000000e+00 0.0000000000000000e+00 0.0000000000000000e+00  0.0000000000000000e+00 0.0000000000000000e+00 0.0000000000000000e+00  0.0000000000000000e+00 0.0000000000000000e+00 0.0000000000000000e+00  0.0000000000000000e+00 0.0000000000000000e+00 0.0000000000000000e+00  0.0000000000000000e+00 0.0000000000000000e+00 0.0000000000000000e+00  0.0000000000000000e+00 0.0000000000000000e+00 0.0000000000000000e+00  0.0000000000000000e+00 0.0000000000000000e+00 0.0000000000000000e+00  0.0000000000000000e+00 0.0000000000000000e+00 0.0000000000000000e+00  0.0000000000000000e+00 0.0000000000000000e+00 0.0000000000000000e+00  0.0000000000000000e+00 0.0000000000000000e+00 0.0000000000000000e+00  0.0000000000000000e+00 0.0000000000000000e+00 0.0000000000000000e+00  0.0000000000000000e+00 0.0000000000000000e+00 0.0000000000000000e+00  0.0000000000000000e+00 0.0000000000000000e+00 0.0000000000000000e+00  0.0000000000000000e+00 0.0000000000000000e+00 0.0000000000000000e+00  0.0000000000000000e+00 0.0000000000000000e+00 0.0000000000000000e+00  0.0000000000000000e+00 0.0000000000000000e+00 0.0000000000000000e+00  0.0000000000000000e+00 0.0000000000000000e+00 0.0000000000000000e+00  0.0000000000000000e+00 0.0000000000000000e+00 0.0000000000000000e+00  0.0000000000000000e+00 0.0000000000000000e+00 0.0000000000000000e+00  0.0000000000000000e+00 0.0000000000000000e+00 0.0000000000000000e+00  0.0000000000000000e+00 0.0000000000000000e+00 0.0000000000000000e+00  0.0000000000000000e+00 0.0000000000000000e+00 0.0000000000000000e+00  0.0000000000000000e+00 0.0000000000000000e+00 0.0000000000000000e+00  0.0000000000000000e+00 0.0000000000000000e+00 0.0000000000000000e+00  0.0000000000000000e+00 0.0000000000000000e+00 0.0000000000000000e+00  0.0000000000000000e+00 0.0000000000000000e+00 0.0000000000000000e+00  0.0000000000000000e+00 0.0000000000000000e+00 0.0000000000000000e+00  0.0000000000000000e+00 0.0000000000000000e+00 0.0000000000000000e+00  0.0000000000000000e+00 0.0000000000000000e+00 0.0000000000000000e+00  0.0000000000000000e+00 0.0000000000000000e+00 0.0000000000000000e+00  0.0000000000000000e+00 0.0000000000000000e+00 0.0000000000000000e+00  0.0000000000000000e+00 0.0000000000000000e+00 0.0000000000000000e+00  0.0000000000000000e+00 0.0000000000000000e+00 0.0000000000000000e+00  0.0000000000000000e+00 0.0000000000000000e+00 0.0000000000000000e+00  0.0000000000000000e+00 0.0000000000000000e+00 0.0000000000000000e+00  0.0000000000000000e+00 0.0000000000000000e+00 0.0000000000000000e+00  0.0000000000000000e+00 0.0000000000000000e+00 0.0000000000000000e+00  0.0000000000000000e+00 0.0000000000000000e+00 0.0000000000000000e+00  0.0000000000000000e+00 0.0000000000000000e+00 0.0000000000000000e+00  0.0000000000000000e+00 0.0000000000000000e+00 0.0000000000000000e+00  0.0000000000000000e+00 0.0000000000000000e+00 0.0000000000000000e+00  0.0000000000000000e+00 0.0000000000000000e+00 0.0000000000000000e+00  0.0000000000000000e+00 0.0000000000000000e+00 0.0000000000000000e+00  0.0000000000000000e+00 0.0000000000000000e+00 0.0000000000000000e+00  0.0000000000000000e+00 0.0000000000000000e+00 0.0000000000000000e+00  0.0000000000000000e+00 0.0000000000000000e+00 0.0000000000000000e+00  0.0000000000000000e+00 0.0000000000000000e+00 0.0000000000000000e+00  0.0000000000000000e+00 0.0000000000000000e+00 0.0000000000000000e+00  0.0000000000000000e+00 0.0000000000000000e+00 0.0000000000000000e+00  3.4559601663156463e-02 9.8684627419064652e-01 0.0000000000000000e+00  5.0015749935814246e-03 9.6107167111473957e-01 0.0000000000000000e+00  3.7935416293675461e-01 7.7529189885259553e-01 0.0000000000000000e+00  1.8331424929407100e-01 4.7612708721944869e-01 0.0000000000000000e+00  2.2823424422451713e-01 3.0336633069309099e-01 0.0000000000000000e+00  9.3585376028240227e-02 1.6351196706061241e-01 0.0000000000000000e+00  1.1355308304260754e-01 6.8012958507562643e-02 0.0000000000000000e+00  4.9066995807073008e-02 -4.3988695627138787e-02 0.0000000000000000e+00  6.4890913705601891e-02 -1.3867161965705674e-01 0.0000000000000000e+00  6.1070274722771645e-03 -1.8891542639185691e-01 0.0000000000000000e+00  4.9845703836513815e-02 -2.7103908668979831e-01 0.0000000000000000e+00  -1.4153094688480741e-02 -2.7886634491926715e-01 0.0000000000000000e+00  6.6168267795890329e-02 -3.5573496762999179e-01 0.0000000000000000e+00  1.8242632840817504e-02 -3.9729600646535457e-01 0.0000000000000000e+00  -7.9817468005520423e-04 -3.6828963038441148e-01 0.0000000000000000e+00  3.1679322561141976e-02 -3.4257761247630047e-01 0.0000000000000000e+00  -2.9506184330742098e-02 -3.7202387089594596e-01 0.0000000000000000e+00  2.5383366086257284e-03 -3.8684399821414944e-01 0.0000000000000000e+00  -7.7949903546589885e-02 -3.8751301421519563e-01 0.0000000000000000e+00  -4.5694563311859178e-02 -4.6883569525091295e-01 0.0000000000000000e+00  -1.8818907385220776e-01 -3.7344658355493621e-01 0.0000000000000000e+00  -7.3906439717248973e-02 -5.6338577930166944e-01 0.0000000000000000e+00  -2.9844794078907738e-01 -5.6530834248435069e-01 0.0000000000000000e+00  -2.7394587182596453e-01 -4.9003187648552521e-01 0.0000000000000000e+00  -2.4008317380309821e-01 -1.3448483406592056e+00 0.0000000000000000e+00  -2.2887731454398408e-01 -8.7389523077308084e-01 0.0000000000000000e+00  -1.1742271272902852e-01 -6.8332226551582220e-01 0.0000000000000000e+00  -2.5639450795311070e-01 -3.1420925247888132e-01 0.0000000000000000e+00  2.4445850939392261e-01 -1.0436920820649045e+00 0.0000000000000000e+00  -2.5539970193108669e-01 -1.3607700890632624e+00 0.0000000000000000e+00  1.6927224070299582e-01 -4.0036451731872696e-01 0.0000000000000000e+00  -3.6567946708977360e-02 -2.6795676890665276e-01 0.0000000000000000e+00  2.8984430073840911e-01 -9.3313426848206460e-01 0.0000000000000000e+00  -1.6275663008219654e-01 -1.2138254451944830e+00 0.0000000000000000e+00  1.2633433280915365e-01 -3.6200116778888541e-01 0.0000000000000000e+00  -1.8924995422611352e-02 -5.4714118375669474e-01 0.0000000000000000e+00  6.9440862968191450e-02 -8.6182101490643614e-01 0.0000000000000000e+00  -1.4244847210712658e-01 -8.0345362867481074e-01 0.0000000000000000e+00  2.7823428027496144e-01 -8.8609421661976773e-01 0.0000000000000000e+00  1.9569952985716901e-01 -1.3219680549156887e+00 0.0000000000000000e+00  3.2532647020135036e-01 -6.7261272596146093e-01 0.0000000000000000e+00  3.5825194082374573e-01 -6.3649465362368818e-01 0.0000000000000000e+00  2.3208717354850361e-01 -6.0434154019895736e-01 0.0000000000000000e+00  3.1603577500594887e-01 -2.8472879693795144e-01 0.0000000000000000e+00  3.4819516779663839e-01 -7.3465799918380592e-01 0.0000000000000000e+00  6.0648231309617895e-01 -1.1187587288018266e+00 0.0000000000000000e+00  6.1499874452511794e-01 -5.7745170616992847e-01 0.0000000000000000e+00  1.4670635799506454e-01 -3.0304041905763490e-01 0.0000000000000000e+00  1.7160109359726283e-01 -3.4899980017131410e-01 0.0000000000000000e+00  2.8400820141049021e-01 -4.3671280936958407e-01 0.0000000000000000e+00  1.0421101056943727e-01 -4.7984442313949022e-01 0.0000000000000000e+00  2.3530499986259573e-01 -5.9302400985840298e-01 0.0000000000000000e+00  1.4126634453589448e-01 -5.9429441192671928e-01 0.0000000000000000e+00  8.8950275790246017e-02 -7.0147719335589465e-01 0.0000000000000000e+00  2.4595729701729144e-01 -7.8133625855185940e-01 0.0000000000000000e+00  -7.3018934636989441e-02 -7.8677545613455568e-01 0.0000000000000000e+00  8.8644459247139054e-02 -7.4050006634554366e-01 0.0000000000000000e+00  -1.3483803043565362e-01 -6.9503307840489625e-01 0.0000000000000000e+00  8.4163605032392605e-02 -6.2618449178474611e-01 0.0000000000000000e+00  4.6799343279932716e-03 -6.3174675084470389e-01 0.0000000000000000e+00  1.5669217778040836e-01 -7.0378857144157725e-01 0.0000000000000000e+00  -1.4921617647140578e-01 -6.8323541924436626e-01 0.0000000000000000e+00  6.4485450054482418e-02 -6.0506103582869042e-01 0.0000000000000000e+00  3.5076552911884391e-02 -6.4921555154243571e-01 0.0000000000000000e+00  1.8820306248450006e-01 -7.8752936198770640e-01 0.0000000000000000e+00  -2.1911867854045977e-01 -7.8094968208645399e-01 0.0000000000000000e+00  -4.0851963222910022e-02 -6.6935605996311287e-01 0.0000000000000000e+00  -1.0239860106711143e-01 -6.6002838951475240e-01 0.0000000000000000e+00  9.6021623805563186e-02 -7.3963925578473189e-01 0.0000000000000000e+00  -2.2134685865439985e-01 -7.4346043183863819e-01 0.0000000000000000e+00  -9.5010600077965954e-02 -6.5494701379209108e-01 0.0000000000000000e+00  -1.2258644070411036e-01 -5.7817808439512552e-01 0.0000000000000000e+00  -1.8162684202191140e-01 -5.6273852450283590e-01 0.0000000000000000e+00  -7.7491116670333940e-02 -4.6233307831680748e-01 0.0000000000000000e+00  -1.3978395272805197e-01 -4.4215496176957203e-01 0.0000000000000000e+00  -4.0012544687267795e-02 -4.1577813873324054e-01 0.0000000000000000e+00  -1.1158786435630685e-01 -4.0281013928923420e-01 0.0000000000000000e+00  -3.6320617643358317e-02 -3.8323503038321194e-01 0.0000000000000000e+00  -9.3570777612308656e-02 -3.6350448595042784e-01 0.0000000000000000e+00  -2.0824150104845118e-02 -3.6364337915914818e-01 0.0000000000000000e+00  -4.2139165142082942e-02 -3.5236046917985980e-01 0.0000000000000000e+00  -1.1849148654860654e-01 -3.5464048732147652e-01 0.0000000000000000e+00  -3.8277023546620589e-02 -2.9477699712952760e-01 0.0000000000000000e+00  -1.1678094665963754e-01 -2.6408750230447459e-01 0.0000000000000000e+00  -4.7020347337430324e-02 -2.0449545696443436e-01 0.0000000000000000e+00  -8.1568689543595141e-02 -1.5481580403857187e-01 0.0000000000000000e+00  -3.0080788262282096e-02 -6.7777810439382760e-02 0.0000000000000000e+00  -4.9994304649863451e-02 2.9885731217790593e-02 0.0000000000000000e+00  4.0043652111092003e-02 1.7783150362182637e-01 0.0000000000000000e+00  4.6377915558534336e-02 3.0800703878533947e-01 0.0000000000000000e+00  2.3655388537466743e-01 1.8975187407825664e-01 0.0000000000000000e+00  -1.3645688648553161e-01 7.7325003717788965e-01 0.0000000000000000e+00  -4.3921799927356664e-01 1.8925914162913089e+00 0.0000000000000000e+00  -1.8484184554730174e-01 9.1194339544752934e-01 0.0000000000000000e+00  1.0498793178249352e-02 -7.5937450102648385e-01 0.0000000000000000e+00  4.4411762068514151e-03 3.9068379407443121e-01 0.0000000000000000e+00  1.6257436619950029e-04 3.9183412150850572e-01 0.0000000000000000e+00  -2.2626181631398269e-02 7.0221402345974970e-01 0.0000000000000000e+00  -1.9534642772610786e-01 -4.9658828231235430e-01 0.0000000000000000e+00  7.1884099505559157e-02 6.3017531503467084e-01 0.0000000000000000e+00  5.8917756374151600e-02 -2.2894612653432697e-01 0.0000000000000000e+00  1.0739882597462105e-01 5.6186434076846137e-01 0.0000000000000000e+00  5.2192784904535857e-03 8.1334791929230960e-02 0.0000000000000000e+00  1.2839001891395681e-03 1.8205837516158754e-01 0.0000000000000000e+00  -2.0703640874867535e-01 5.8213258097476916e-01 0.0000000000000000e+00  2.0314694055161742e-03 2.9346230483047542e-01 0.0000000000000000e+00  -2.9445489725923324e-01 6.3211760344110224e-01 0.0000000000000000e+00  -2.4613246814863972e-03 2.3460578450678526e-01 0.0000000000000000e+00  -8.9708740538792606e-03 3.0913275412299301e-01 0.0000000000000000e+00  2.4180548500348367e-01 5.8224358880254234e-01 0.0000000000000000e+00  2.6018362679601903e-01 5.2065667499079160e-01 0.0000000000000000e+00  -3.5292595572981714e-02 3.4384022245900570e-01 0.0000000000000000e+00  -2.1386047073992578e-01 5.9313761015779554e-01 0.0000000000000000e+00  3.2375214237018884e-03 3.8367103877222652e-01 0.0000000000000000e+00  6.8385968632934474e-02 6.3140431594809343e-01 0.0000000000000000e+00  2.1710887538888803e-02 3.6300967853408350e-01 0.0000000000000000e+00  1.5984784822361019e-03 2.3325527582226857e-01 0.0000000000000000e+00  -3.9698612410171696e-02 3.9720002441290986e-01 0.0000000000000000e+00  -5.5691489594170262e-03 -2.1967045472662487e-02 0.0000000000000000e+00  -2.5530804178229359e-02 2.7917593817941577e-01 0.0000000000000000e+00  -2.5563173380188398e-01 -7.5906604948234513e-01 0.0000000000000000e+00  3.3367909442663948e-02 4.2410992982131346e-01 0.0000000000000000e+00  -4.3316486725098587e-02 5.4834953012261167e-01 0.0000000000000000e+00  -1.4233619768277920e-02 -2.2100208210992289e-01 0.0000000000000000e+00  2.7818052297513659e-02 1.0492856117938051e-01 0.0000000000000000e+00  -2.9890488519700272e-02 2.9280379139296381e-01 0.0000000000000000e+00  -3.8072652223176538e-02 3.1055916916673254e-01 0.0000000000000000e+00  -7.9816298248992106e-04 2.1625918687471599e-01 0.0000000000000000e+00  8.0010216009944318e-03 5.7443419153063990e-01 0.0000000000000000e+00  2.6145073178547262e-02 1.5170084651904597e-01 0.0000000000000000e+00  2.0059072766588124e-02 2.3514955221751246e-01 0.0000000000000000e+00  3.7896869881141798e-02 3.4944322845918430e-01 0.0000000000000000e+00  1.2886077672926875e-02 5.0760026455405571e-01 0.0000000000000000e+00  5.8191264129292888e-02 2.7790581702357858e-01 0.0000000000000000e+00  -5.2005846155553336e-03 4.9176371824125392e-01 0.0000000000000000e+00  -1.5322118259028069e-02 -5.8653157415264912e-01 0.0000000000000000e+00  4.5906395494013441e-01 -4.0503370172905334e-01 0.0000000000000000e+00  -3.0181969147053861e-01 3.6744074225502704e-01 0.0000000000000000e+00  -1.0855809552680654e-02 -7.0169924610231538e-01 0.000000000