<?xml version="1.0"?>
<VTKFile type="UnstructuredGrid"  version="0.1"  >
<UnstructuredGrid>
<Piece  NumberOfPoints="1419" NumberOfCells="2698">
<Points>
<DataArray  type="Float64"  NumberOfComponents="3"  format="ascii">7.548939681509005e-08 -2.210905519672319e-06 0  1.01148023269884e-07 0.4099977793853551 0  2.500000205848186 -3.321530346315014e-06 0  2.500000205848215 0.409996678469682 0  0.600000229682524 0.1899965735680133 0  0.6000002575914677 0.2099965721365626 0  0.25 0.2 0  0.1500000869723815 0.1999978054750283 0  0.2489897948556636 0.21 0  0.2489897948556636 0.19 0  0.6000002506055426 0.1999965608967706 0  1.008378999761849e-07 0.3807120657802242 0  9.99575783913823e-08 0.3514263533451047 0  9.849082274941193e-08 0.3221406418026687 0  9.645859879192189e-08 0.2928549305557549 0  9.397399727822218e-08 0.2635692191467627 0  9.11389634192603e-08 0.2342835072698344 0  8.807961943463596e-08 0.2049977944657519 0  8.503803664530456e-08 0.1757120808164532 0  8.223454360372456e-08 0.1464263662387311 0  7.980229262315693e-08 0.1171406509082875 0  7.792401009260366e-08 0.08785493510873817 0  7.655190166237656e-08 0.05856921925071062 0  7.57451618355821e-08 0.02928350378944872 0  0.03015451282270747 -2.2113661186918e-06 0  0.06140009421075993 -2.213033557592891e-06 0  0.09377631361546047 -2.216809278025835e-06 0  0.1273240665382317 -2.224267515808883e-06 0  0.1620857544238656 -2.238239858296155e-06 0  0.1981053095121481 -2.265697614134554e-06 0  0.2354282492954395 -2.317152803938202e-06 0  0.2741017241938067 -2.399638448195774e-06 0  0.3141746232151608 -2.514512300498611e-06 0  0.3556975727379361 -2.658011511420829e-06 0  0.3987230476116751 -2.813084106136905e-06 0  0.4433054161986458 -2.961243824834385e-06 0  0.4895010066987315 -3.089756047954833e-06 0  0.5373682121288118 -3.187615902596052e-06 0  0.586967503463476 -3.252080652463925e-06 0  0.638361550752948 -3.290770634631708e-06 0  0.6916153061189897 -3.309584941396109e-06 0  0.7467960573939882 -3.31775729299435e-06 0  0.8039735475621582 -3.321030799892086e-06 0  0.863220017062305 -3.322079871524729e-06 0  0.9246103369382351 -3.322228121555513e-06 0  0.9882220859853197 -3.322086416119628e-06 0  1.054135650852112 -3.321919197699274e-06 0  1.122434306061497 -3.321781170194907e-06 0  1.193204382802095 -3.321681303395944e-06 0  1.26653529562316 -3.321617635059758e-06 0  1.342519721835878 -3.321580173586653e-06 0  1.421253654319887 -3.321557983589334e-06 0  1.502836594937513 -3.321544961165906e-06 0  1.587371645598242 -3.321537946300453e-06 0  1.674965624621075 -3.321534232807008e-06 0  1.765729207671527 -3.321532256145709e-06 0  1.859777114727185 -3.321531284321201e-06 0  1.957228183334752 -3.321530774713864e-06 0  2.058205535717902 -3.321530542709413e-06 0  2.162836797038046 -3.321530424304422e-06 0  2.271254163139016 -3.321530374130629e-06 0  2.383594652651601 -3.321530352657901e-06 0  2.500000205848187 0.1024966784694189 0  2.500000205848201 0.2049966784691419 0  2.500000205848212 0.3074966784693962 0  2.38359465265188 0.4099966784696881 0  2.271254163139563 0.4099966784697104 0  2.162836797038908 0.4099966784697628 0  2.058205535719215 0.4099966784698757 0  1.95722818333677 0.4099966784701053 0  1.859777114730565 0.4099966784706398 0  1.765729207677287 0.4099966784716087 0  1.674965624631614 0.4099966784736673 0  1.587371645617474 0.4099966784773916 0  1.502836594973107 0.4099966784844865 0  1.421253654386369 0.4099966784982013 0  1.342519721954836 0.4099966785215028 0  1.266535295832271 0.4099966785622529 0  1.193204383172749 0.4099966786389876 0  1.122434306704816 0.4099966787765966 0  1.054135651917829 0.4099966790066839 0  0.9882220877667861 0.4099966794622489 0  0.9246103398120142 0.4099966802987624 0  0.863220021669254 0.4099966819007326 0  0.8039735547737342 0.4099966851073097 0  0.7467960684259829 0.4099966915504467 0  0.6916153223538378 0.4099967041477137 0  0.6383615736684247 0.4099967288407647 0  0.5869675345278841 0.4099967717377133 0  0.537368251647462 0.4099968389510252 0  0.4895010543745236 0.4099969361980391 0  0.4433054713527396 0.4099970589029376 0  0.3987231085484321 0.4099971982648822 0  0.3556976368201418 0.4099973421576448 0  0.3141746874757017 0.4099974755634708 0  0.2741017851335927 0.4099975854043413 0  0.2354283048503856 0.4099976637666373 0  0.1981053583888611 0.4099977150069297 0  0.1620857964926453 0.4099977449550058 0  0.1273241026223467 0.4099977616082269 0  0.09377634498503259 0.4099977711864436 0  0.06140012232329153 0.4099977761587559 0  0.03015453903390532 0.4099977787407262 0  0.2497468076502589 0.2050254481002335 0  0.2497468076502614 0.1949745518997913 0  0.2469965328845246 0.1829306459365401 0  0.2439893914999207 0.1762301950705114 0  0.2400332414952668 0.1700426679994506 0  0.2352134312102016 0.1645014731147001 0  0.2296339417622103 0.1597261094428422 0  0.2234151428660051 0.1558195842789851 0  0.2166911964040764 0.1528661649228293 0  0.2096071619857434 0.1509295607868834 0  0.2023158678183418 0.1500515443586611 0  0.1949746129808391 0.150251056579891 0  0.1877417747242746 0.1515237894607535 0  0.1807733910853045 0.1538422846000295 0  0.1742197950820719 0.1571565218748301 0  0.1682223710594991 0.1613950008402491 0  0.1629105049614401 0.1664662813466923 0  0.158398792592226 0.1722609575707322 0  0.1547845677791838 0.1786540172112858 0  0.1521458021753756 0.1855075390993753 0  0.1505394234900468 0.19267366814889 0  0.1505394281440753 0.2073219433371378 0  0.1521458115290197 0.2144880740648537 0  0.1547845817320505 0.2213415988616442 0  0.1583988112178192 0.227734663004797 0  0.1629105281853997 0.2335293456165151 0  0.1682223989696471 0.2386006353353239 0  0.174219827579595 0.242839126686709 0  0.1807734282548889 0.2461533811349638 0  0.1877418165354305 0.2484718998608625 0  0.1949746594656228 0.2497446652088187 0  0.2023159189212459 0.2499442202903921 0  0.2096072178110238 0.2490662635715002 0  0.2166912567732559 0.2471297378507913 0  0.2234152077338531 0.2441764276923638 0  0.2296340109487951 0.2402700500750932 0  0.235213504106103 0.2354948939375655 0  0.2400333169571091 0.2299539876167698 0  0.24398946626986 0.223766911838441 0  0.2469965976323628 0.2170672262212046 0  0.2564581803982222 0.2099989706568765 0  0.2639265063200202 0.2099986258008204 0  0.2713948322445374 0.2099984027066806 0  0.2788631369539136 0.2099982281138585 0  0.2863314446902044 0.2099980807415794 0  0.2937997457116083 0.2099979522315566 0  0.3012680488023085 0.2099978372638419 0  0.3087363498324989 0.2099977391180547 0  0.3162046559578955 0.2099976475238392 0  0.3236729563200486 0.2099975631629554 0  0.3311412645776942 0.2099974852899172 0  0.3386095645058941 0.2099974134398546 0  0.3460778726241098 0.2099973434046209 0  0.3535461736230628 0.2099972684435008 0  0.361014473942022 0.2099972267064128 0  0.3684827795986872 0.2099971794575702 0  0.3759510757309454 0.2099971297986319 0  0.3834193797754998 0.2099970829790407 0  0.3908876744212149 0.2099970370086018 0  0.3983559779212039 0.209996992616968 0  0.4058242710070445 0.2099969487906343 0  0.4132925735986148 0.2099969009854213 0  0.4207608655190864 0.209996842920125 0  0.4282291639457867 0.2099968190151492 0  0.4356974696318876 0.2099967838138898 0  0.4431657683262513 0.2099967500464104 0  0.4506340780899746 0.2099967120741672 0  0.4581023793878981 0.2099966800566834 0  0.4655706940927113 0.2099966479561474 0  0.4730389975815818 0.2099966187724018 0  0.4805073154225156 0.209996593482065 0  0.4879756226894583 0.2099965730536678 0  0.4954439490887623 0.2099965354601046 0  0.502912260109451 0.2099965187649161 0  0.5103805858667692 0.2099965237672054 0  0.5178488929708036 0.2099965148191923 0  0.5253172126882758 0.209996505274755 0  0.5327855188540127 0.2099964942362039 0  0.5402538398363466 0.2099964892828325 0  0.5477221472038107 0.2099964884449854 0  0.5551904660750429 0.209996489007674 0  0.5626587735495372 0.2099964762435034 0  0.5701270700817864 0.2099965063690744 0  0.5775953772960153 0.2099965269247357 0  0.5850636736333558 0.2099965329605161 0  0.5925319726602936 0.2099965486473568 0  0.6000002593961694 0.2049965627388857 0  0.6000002369342606 0.1949965676641028 0  0.5925319281229092 0.189996554646438 0  0.585063630974999 0.189996531302189 0  0.5775953209400532 0.1899965102302772 0  0.5701270195290068 0.1899964898794372 0  0.562658710728945 0.1899964618874835 0  0.5551903981244248 0.1899964684307282 0  0.5477220960013907 0.1899964645398635 0  0.5402537780571631 0.189996461748301 0  0.5327854753004865 0.189996463584894 0  0.5253171553004033 0.1899964681636353 0  0.5178488506263366 0.1899964739379489 0  0.5103805313966845 0.1899964795714612 0  0.5029122262358845 0.1899964877788935 0  0.4954438994875511 0.1899965035988068 0  0.4879755940811102 0.1899965272235893 0  0.4805072737503414 0.1899965546790252 0  0.4730389691325655 0.1899965831912069 0  0.4655706495571098 0.1899966137407706 0  0.4581023477292774 0.1899966467571948 0  0.4506340323931757 0.1899966830004258 0  0.4431657314304547 0.1899967214072815 0  0.4356974174121211 0.1899967612771615 0  0.4282291154043572 0.1899967997300492 0  0.4207608050037673 0.1899968293847291 0  0.4132924976116403 0.1899968875443959 0  0.4058241978229947 0.1899969394717987 0  0.3983558897786332 0.1899969870985153 0  0.3908875887940504 0.1899970350451968 0  0.3834192803531902 0.1899970830919531 0  0.3759509785547341 0.1899971318958826 0  0.3684826705481111 0.1899971819179188 0  0.3610143697606862 0.1899972300546801 0  0.3535460615287741 0.1899972747244315 0  0.3460777521265497 0.1899973486605745 0  0.3386094496510978 0.189997420139383 0  0.3311411406818243 0.1899974929703043 0  0.3236728399223862 0.1899975704750591 0  0.3162045339845562 0.1899976545532014 0  0.3087362341235395 0.1899977444658787 0  0.3012679300655613 0.1899978416249308 0  0.2937996280569684 0.1899979564423759 0  0.2863313225445228 0.1899980841564635 0  0.2788630194426286 0.1899982290198354 0  0.2713947009077499 0.1899984086884184 0  0.26392639320952 0.1899986428850556 0  0.256458083811641 0.18999897
[...]
<PointData  Vectors="f_30-0"> 
<DataArray  type="Float64"  Name="f_30-0"  NumberOfComponents="3" format="ascii">0.0000000000000000e+00 0.0000000000000000e+00 0.0000000000000000e+00  0.0000000000000000e+00 0.0000000000000000e+00 0.0000000000000000e+00  0.0000000000000000e+00 0.0000000000000000e+00 0.0000000000000000e+00  0.0000000000000000e+00 0.0000000000000000e+00 0.0000000000000000e+00  4.3407993333714472e-02 -1.0848198542740051e-01 0.0000000000000000e+00  1.0260859317157690e-01 -9.9744190206278213e-02 0.0000000000000000e+00  0.0000000000000000e+00 0.0000000000000000e+00 0.0000000000000000e+00  0.0000000000000000e+00 0.0000000000000000e+00 0.0000000000000000e+00  0.0000000000000000e+00 0.0000000000000000e+00 0.0000000000000000e+00  0.0000000000000000e+00 0.0000000000000000e+00 0.0000000000000000e+00  1.6776035597615965e-01 -2.2920316779045796e-01 0.0000000000000000e+00  0.0000000000000000e+00 0.0000000000000000e+00 0.0000000000000000e+00  0.0000000000000000e+00 0.0000000000000000e+00 0.0000000000000000e+00  0.0000000000000000e+00 0.0000000000000000e+00 0.0000000000000000e+00  0.0000000000000000e+00 0.0000000000000000e+00 0.0000000000000000e+00  0.0000000000000000e+00 0.0000000000000000e+00 0.0000000000000000e+00  0.0000000000000000e+00 0.0000000000000000e+00 0.0000000000000000e+00  0.0000000000000000e+00 0.0000000000000000e+00 0.0000000000000000e+00  0.0000000000000000e+00 0.0000000000000000e+00 0.0000000000000000e+00  0.0000000000000000e+00 0.0000000000000000e+00 0.0000000000000000e+00  0.0000000000000000e+00 0.0000000000000000e+00 0.0000000000000000e+00  0.0000000000000000e+00 0.0000000000000000e+00 0.0000000000000000e+00  0.0000000000000000e+00 0.0000000000000000e+00 0.0000000000000000e+00  0.0000000000000000e+00 0.0000000000000000e+00 0.0000000000000000e+00  0.0000000000000000e+00 0.0000000000000000e+00 0.0000000000000000e+00  0.0000000000000000e+00 0.0000000000000000e+00 0.0000000000000000e+00  0.0000000000000000e+00 0.0000000000000000e+00 0.0000000000000000e+00  0.0000000000000000e+00 0.0000000000000000e+00 0.0000000000000000e+00  0.0000000000000000e+00 0.0000000000000000e+00 0.0000000000000000e+00  0.0000000000000000e+00 0.0000000000000000e+00 0.0000000000000000e+00  0.0000000000000000e+00 0.0000000000000000e+00 0.0000000000000000e+00  0.0000000000000000e+00 0.0000000000000000e+00 0.0000000000000000e+00  0.0000000000000000e+00 0.0000000000000000e+00 0.0000000000000000e+00  0.0000000000000000e+00 0.0000000000000000e+00 0.0000000000000000e+00  0.0000000000000000e+00 0.0000000000000000e+00 0.0000000000000000e+00  0.0000000000000000e+00 0.0000000000000000e+00 0.0000000000000000e+00  0.0000000000000000e+00 0.0000000000000000e+00 0.0000000000000000e+00  0.0000000000000000e+00 0.0000000000000000e+00 0.0000000000000000e+00  0.0000000000000000e+00 0.0000000000000000e+00 0.0000000000000000e+00  0.0000000000000000e+00 0.0000000000000000e+00 0.0000000000000000e+00  0.0000000000000000e+00 0.0000000000000000e+00 0.0000000000000000e+00  0.0000000000000000e+00 0.0000000000000000e+00 0.0000000000000000e+00  0.0000000000000000e+00 0.0000000000000000e+00 0.0000000000000000e+00  0.0000000000000000e+00 0.0000000000000000e+00 0.0000000000000000e+00  0.0000000000000000e+00 0.0000000000000000e+00 0.0000000000000000e+00  0.0000000000000000e+00 0.0000000000000000e+00 0.0000000000000000e+00  0.0000000000000000e+00 0.0000000000000000e+00 0.0000000000000000e+00  0.0000000000000000e+00 0.0000000000000000e+00 0.0000000000000000e+00  0.0000000000000000e+00 0.0000000000000000e+00 0.0000000000000000e+00  0.0000000000000000e+00 0.0000000000000000e+00 0.0000000000000000e+00  0.0000000000000000e+00 0.0000000000000000e+00 0.0000000000000000e+00  0.0000000000000000e+00 0.0000000000000000e+00 0.0000000000000000e+00  0.0000000000000000e+00 0.0000000000000000e+00 0.0000000000000000e+00  0.0000000000000000e+00 0.0000000000000000e+00 0.0000000000000000e+00  0.0000000000000000e+00 0.0000000000000000e+00 0.0000000000000000e+00  0.0000000000000000e+00 0.0000000000000000e+00 0.0000000000000000e+00  0.0000000000000000e+00 0.0000000000000000e+00 0.0000000000000000e+00  0.0000000000000000e+00 0.0000000000000000e+00 0.0000000000000000e+00  0.0000000000000000e+00 0.0000000000000000e+00 0.0000000000000000e+00  0.0000000000000000e+00 0.0000000000000000e+00 0.0000000000000000e+00  0.0000000000000000e+00 0.0000000000000000e+00 0.0000000000000000e+00  0.0000000000000000e+00 0.0000000000000000e+00 0.0000000000000000e+00  9.3265836167782861e-09 3.2110084393818361e-09 0.0000000000000000e+00  -2.0649728871528124e-10 4.5894597619420147e-09 0.0000000000000000e+00  -9.5842786468477341e-09 3.6781206517027636e-09 0.0000000000000000e+00  0.0000000000000000e+00 0.0000000000000000e+00 0.0000000000000000e+00  0.0000000000000000e+00 0.0000000000000000e+00 0.0000000000000000e+00  0.0000000000000000e+00 0.0000000000000000e+00 0.0000000000000000e+00  0.0000000000000000e+00 0.0000000000000000e+00 0.0000000000000000e+00  0.0000000000000000e+00 0.0000000000000000e+00 0.0000000000000000e+00  0.0000000000000000e+00 0.0000000000000000e+00 0.0000000000000000e+00  0.0000000000000000e+00 0.0000000000000000e+00 0.0000000000000000e+00  0.0000000000000000e+00 0.0000000000000000e+00 0.0000000000000000e+00  0.0000000000000000e+00 0.0000000000000000e+00 0.0000000000000000e+00  0.0000000000000000e+00 0.0000000000000000e+00 0.0000000000000000e+00  0.0000000000000000e+00 0.0000000000000000e+00 0.0000000000000000e+00  0.0000000000000000e+00 0.0000000000000000e+00 0.0000000000000000e+00  0.0000000000000000e+00 0.0000000000000000e+00 0.0000000000000000e+00  0.0000000000000000e+00 0.0000000000000000e+00 0.0000000000000000e+00  0.0000000000000000e+00 0.0000000000000000e+00 0.0000000000000000e+00  0.0000000000000000e+00 0.0000000000000000e+00 0.0000000000000000e+00  0.0000000000000000e+00 0.0000000000000000e+00 0.0000000000000000e+00  0.0000000000000000e+00 0.0000000000000000e+00 0.0000000000000000e+00  0.0000000000000000e+00 0.0000000000000000e+00 0.0000000000000000e+00  0.0000000000000000e+00 0.0000000000000000e+00 0.0000000000000000e+00  0.0000000000000000e+00 0.0000000000000000e+00 0.0000000000000000e+00  0.0000000000000000e+00 0.0000000000000000e+00 0.0000000000000000e+00  0.0000000000000000e+00 0.0000000000000000e+00 0.0000000000000000e+00  0.0000000000000000e+00 0.0000000000000000e+00 0.0000000000000000e+00  0.0000000000000000e+00 0.0000000000000000e+00 0.0000000000000000e+00  0.0000000000000000e+00 0.0000000000000000e+00 0.0000000000000000e+00  0.0000000000000000e+00 0.0000000000000000e+00 0.0000000000000000e+00  0.0000000000000000e+00 0.0000000000000000e+00 0.0000000000000000e+00  0.0000000000000000e+00 0.0000000000000000e+00 0.0000000000000000e+00  0.0000000000000000e+00 0.0000000000000000e+00 0.0000000000000000e+00  0.0000000000000000e+00 0.0000000000000000e+00 0.0000000000000000e+00  0.0000000000000000e+00 0.0000000000000000e+00 0.0000000000000000e+00  0.0000000000000000e+00 0.0000000000000000e+00 0.0000000000000000e+00  0.0000000000000000e+00 0.0000000000000000e+00 0.0000000000000000e+00  0.0000000000000000e+00 0.0000000000000000e+00 0.0000000000000000e+00  0.0000000000000000e+00 0.0000000000000000e+00 0.0000000000000000e+00  0.0000000000000000e+00 0.0000000000000000e+00 0.0000000000000000e+00  0.0000000000000000e+00 0.0000000000000000e+00 0.0000000000000000e+00  0.0000000000000000e+00 0.0000000000000000e+00 0.0000000000000000e+00  0.0000000000000000e+00 0.0000000000000000e+00 0.0000000000000000e+00  0.0000000000000000e+00 0.0000000000000000e+00 0.0000000000000000e+00  0.0000000000000000e+00 0.0000000000000000e+00 0.0000000000000000e+00  0.0000000000000000e+00 0.0000000000000000e+00 0.0000000000000000e+00  0.0000000000000000e+00 0.0000000000000000e+00 0.0000000000000000e+00  0.0000000000000000e+00 0.0000000000000000e+00 0.0000000000000000e+00  0.0000000000000000e+00 0.0000000000000000e+00 0.0000000000000000e+00  0.0000000000000000e+00 0.0000000000000000e+00 0.0000000000000000e+00  0.0000000000000000e+00 0.0000000000000000e+00 0.0000000000000000e+00  0.0000000000000000e+00 0.0000000000000000e+00 0.0000000000000000e+00  0.0000000000000000e+00 0.0000000000000000e+00 0.0000000000000000e+00  0.0000000000000000e+00 0.0000000000000000e+00 0.0000000000000000e+00  0.0000000000000000e+00 0.0000000000000000e+00 0.0000000000000000e+00  0.0000000000000000e+00 0.0000000000000000e+00 0.0000000000000000e+00  0.0000000000000000e+00 0.0000000000000000e+00 0.0000000000000000e+00  0.0000000000000000e+00 0.0000000000000000e+00 0.0000000000000000e+00  0.0000000000000000e+00 0.0000000000000000e+00 0.0000000000000000e+00  0.0000000000000000e+00 0.0000000000000000e+00 0.0000000000000000e+00  0.0000000000000000e+00 0.0000000000000000e+00 0.0000000000000000e+00  0.0000000000000000e+00 0.0000000000000000e+00 0.0000000000000000e+00  0.0000000000000000e+00 0.0000000000000000e+00 0.0000000000000000e+00  0.0000000000000000e+00 0.0000000000000000e+00 0.0000000000000000e+00  0.0000000000000000e+00 0.0000000000000000e+00 0.0000000000000000e+00  0.0000000000000000e+00 0.0000000000000000e+00 0.0000000000000000e+00  0.0000000000000000e+00 0.0000000000000000e+00 0.0000000000000000e+00  0.0000000000000000e+00 0.0000000000000000e+00 0.0000000000000000e+00  0.0000000000000000e+00 0.0000000000000000e+00 0.0000000000000000e+00  0.0000000000000000e+00 0.0000000000000000e+00 0.0000000000000000e+00  0.0000000000000000e+00 0.0000000000000000e+00 0.0000000000000000e+00  0.0000000000000000e+00 0.0000000000000000e+00 0.0000000000000000e+00  0.0000000000000000e+00 0.0000000000000000e+00 0.0000000000000000e+00  0.0000000000000000e+00 0.0000000000000000e+00 0.0000000000000000e+00  0.0000000000000000e+00 0.0000000000000000e+00 0.0000000000000000e+00  0.0000000000000000e+00 0.0000000000000000e+00 0.0000000000000000e+00  0.0000000000000000e+00 0.0000000000000000e+00 0.0000000000000000e+00  0.0000000000000000e+00 0.0000000000000000e+00 0.0000000000000000e+00  0.0000000000000000e+00 0.0000000000000000e+00 0.0000000000000000e+00  0.0000000000000000e+00 0.0000000000000000e+00 0.0000000000000000e+00  0.0000000000000000e+00 0.0000000000000000e+00 0.0000000000000000e+00  1.1797815238556490e-01 6.0657091458049539e-01 0.0000000000000000e+00  9.0045415207447202e-02 5.4608585826005740e-01 0.0000000000000000e+00  1.9122429003427130e-01 4.2117838548227127e-01 0.0000000000000000e+00  8.4988359639220648e-02 2.4382327088214337e-01 0.0000000000000000e+00  1.0431695305687357e-01 1.3535203933308151e-01 0.0000000000000000e+00  4.5175239110628249e-02 1.6021735455802204e-02 0.0000000000000000e+00  6.0820712233799534e-02 -6.0740424514070697e-02 0.0000000000000000e+00  -1.4271610349616732e-03 -1.3797907223870465e-01 0.0000000000000000e+00  4.1468279612123612e-02 -1.9094924909053590e-01 0.0000000000000000e+00  -1.5266801038902742e-02 -2.1914079273086043e-01 0.0000000000000000e+00  4.2718834445245636e-02 -2.7273733903893516e-01 0.0000000000000000e+00  -1.6510917973148461e-02 -2.7503857215547373e-01 0.0000000000000000e+00  6.2931809536142108e-02 -3.2641951271151515e-01 0.0000000000000000e+00  1.5245011381789051e-02 -3.4929637343321518e-01 0.0000000000000000e+00  6.7424736929395900e-03 -3.2054195219203990e-01 0.0000000000000000e+00  3.8279057452308911e-02 -2.8112833076653554e-01 0.0000000000000000e+00  -3.7493468826722974e-03 -3.1095506065584017e-01 0.0000000000000000e+00  3.0327341882337395e-02 -2.9442174662999382e-01 0.0000000000000000e+00  -2.3070818383567192e-02 -3.0243304297301066e-01 0.0000000000000000e+00  2.5888716816224403e-02 -3.2419731506639876e-01 0.0000000000000000e+00  -5.7578881576462002e-02 -3.1314200767760941e-01 0.0000000000000000e+00  2.9803747566729329e-02 -3.5422596741124229e-01 0.0000000000000000e+00  -6.1864273089249446e-02 -3.8518023447959160e-01 0.0000000000000000e+00  -9.2366653337231458e-02 -3.7375175994119425e-01 0.0000000000000000e+00  -6.0098696106479992e-02 -4.8160951280901249e-01 0.0000000000000000e+00  -1.0102913130252647e-01 -4.3899892590165246e-01 0.0000000000000000e+00  -6.4840502544262948e-02 -5.5558101731191001e-01 0.0000000000000000e+00  -1.3306245443148629e-01 -5.4641455564003538e-01 0.0000000000000000e+00  -1.6353963416914544e-02 -5.9446279682916936e-01 0.0000000000000000e+00  -1.3775411541495050e-01 -6.1850659472533898e-01 0.0000000000000000e+00  -2.1686319704057010e-02 -6.3494365338729164e-01 0.0000000000000000e+00  -1.3091673838916917e-01 -5.0437792006010962e-01 0.0000000000000000e+00  6.7643692329950433e-02 -8.8316489206119697e-01 0.0000000000000000e+00  -7.1075683415855267e-02 -8.9510613531394279e-01 0.0000000000000000e+00  1.1841883582288459e-01 -5.0279988351423432e-01 0.0000000000000000e+00  4.3855208563047749e-03 -5.2831005495445049e-01 0.0000000000000000e+00  1.0261123712683673e-01 -5.2272973945657653e-01 0.0000000000000000e+00  -1.9133245478795451e-02 -6.2585911189147792e-01 0.0000000000000000e+00  1.4258795612832625e-01 -6.1153780895404286e-01 0.0000000000000000e+00  4.3669428552913302e-02 -5.6588293464511863e-01 0.0000000000000000e+00  1.6970511550970552e-01 -4.3620864105130697e-01 0.0000000000000000e+00  1.1261935130986386e-01 -4.4590057757382112e-01 0.0000000000000000e+00  6.2962724745994819e-02 -3.8159634176806079e-01 0.0000000000000000e+00  1.5862664210407637e-01 -2.5343568161603186e-01 0.0000000000000000e+00  1.2055337164465674e-01 -4.1761540837766614e-01 0.0000000000000000e+00  2.6496717394631120e-01 -4.2495164417951287e-01 0.0000000000000000e+00  2.5388719483464717e-01 -2.8665174667642623e-01 0.0000000000000000e+00  3.6673673883263383e-02 -1.7975788445547161e-01 0.0000000000000000e+00  6.0762115151668149e-02 -2.0434086311309155e-01 0.0000000000000000e+00  1.4603283160617933e-01 -2.8207016506573163e-01 0.0000000000000000e+00  4.8372424195392769e-02 -3.2156615924753229e-01 0.0000000000000000e+00  1.2633992976460762e-01 -3.9362977026928131e-01 0.0000000000000000e+00  6.7901548266916578e-02 -3.9014543760495729e-01 0.0000000000000000e+00  1.2138691810764558e-02 -4.4264348440994056e-01 0.0000000000000000e+00  1.4023538876985200e-01 -4.6837264055855654e-01 0.0000000000000000e+00  -1.5946335942435757e-02 -5.0094150468187670e-01 0.0000000000000000e+00  1.0943341248107553e-01 -5.1679215721105609e-01 0.0000000000000000e+00  -4.2159045069798610e-02 -5.1811269490839962e-01 0.0000000000000000e+00  1.1281172443006178e-01 -5.2929064929796321e-01 0.0000000000000000e+00  -1.2188575348120219e-02 -5.6379733506105612e-01 0.0000000000000000e+00  1.2236071183173348e-01 -6.2261919947250466e-01 0.0000000000000000e+00  -1.0700921857397698e-01 -6.2623953217960326e-01 0.0000000000000000e+00  2.9097112481067930e-02 -5.8160454334425260e-01 0.0000000000000000e+00  -1.0903904206843824e-01 -5.5420270341978373e-01 0.0000000000000000e+00  3.8671875476090203e-02 -5.3661638799830735e-01 0.0000000000000000e+00  -1.1377270997303826e-01 -5.1877497662822780e-01 0.0000000000000000e+00  1.6373442521291380e-02 -4.8808077948082540e-01 0.0000000000000000e+00  -1.1084873064515295e-01 -4.6389058431008151e-01 0.0000000000000000e+00  9.2395723542009912e-03 -4.3671601022106149e-01 0.0000000000000000e+00  -1.0236682566599060e-01 -4.0721273810747549e-01 0.0000000000000000e+00  6.0397413062065397e-03 -3.9083852058944546e-01 0.0000000000000000e+00  -4.5464770440317770e-02 -3.6377730960305221e-01 0.0000000000000000e+00  -7.8385665455461134e-02 -3.6173136347773704e-01 0.0000000000000000e+00  -1.2075534515736933e-02 -3.1913546405588861e-01 0.0000000000000000e+00  -6.3145382902387151e-02 -3.2262435774920101e-01 0.0000000000000000e+00  -2.1763498969908993e-04 -3.1835801361388127e-01 0.0000000000000000e+00  -5.5080892677250998e-02 -3.1681025676303481e-01 0.0000000000000000e+00  -3.4274248108521040e-04 -3.1257582250970090e-01 0.0000000000000000e+00  -4.8327361239088679e-02 -3.0390046009156901e-01 0.0000000000000000e+00  7.2950640332262087e-03 -3.1639079587076313e-01 0.0000000000000000e+00  -1.5712665280397966e-02 -3.1377817157593979e-01 0.0000000000000000e+00  -8.5089723569439460e-02 -3.2271309731721121e-01 0.0000000000000000e+00  -9.1614216895181712e-03 -2.8203211455989868e-01 0.0000000000000000e+00  -9.0810114411412318e-02 -2.6647045126078223e-01 0.0000000000000000e+00  -2.2213687860436839e-02 -2.2908666037884529e-01 0.0000000000000000e+00  -8.1224198782560847e-02 -1.9308393385278652e-01 0.0000000000000000e+00  -2.4171410613519847e-02 -1.4183694013714543e-01 0.0000000000000000e+00  -6.1421888923484380e-02 -7.8761728454120702e-02 0.0000000000000000e+00  -2.0547770830034173e-02 8.5969570437312102e-03 0.0000000000000000e+00  -3.8993383480017484e-02 1.2251701564558970e-01 0.0000000000000000e+00  2.4268371810209140e-02 1.8306066015906838e-01 0.0000000000000000e+00  -1.1763141812762146e-01 4.2664356546170107e-01 0.0000000000000000e+00  -2.0116255943467434e-01 7.5363429333346399e-01 0.0000000000000000e+00  -2.1722631753901292e-01 6.1894322533015311e-01 0.0000000000000000e+00  -1.0145908390175581e-02 -3.7209184947836221e-01 0.0000000000000000e+00  -1.3893299152210299e-02 2.1129214723977685e-01 0.0000000000000000e+00  6.9415389285617567e-03 2.6683211030068771e-01 0.0000000000000000e+00  8.3148009900602046e-03 3.8831631920900961e-01 0.0000000000000000e+00  -5.2572145200090417e-02 -2.6741949775523038e-01 0.0000000000000000e+00  2.2987086032322138e-02 4.3865263234895424e-01 0.0000000000000000e+00  1.2424652697522246e-02 -8.0196331654124250e-02 0.0000000000000000e+00  3.3486958739570367e-02 4.3013871141627563e-01 0.0000000000000000e+00  4.7225882962351846e-03 1.3267622577026350e-01 0.0000000000000000e+00  -7.7413331003759129e-04 1.9489756893440910e-01 0.0000000000000000e+00  -8.6303069509035268e-02 5.0581613083345756e-01 0.0000000000000000e+00  5.0346415699049057e-03 2.4745174131021955e-01 0.0000000000000000e+00  -3.4547450823073561e-02 4.5860097125247529e-01 0.0000000000000000e+00  -3.8447739468235047e-03 2.2312256412613904e-01 0.0000000000000000e+00  -7.6430654866232117e-04 2.4597391209241584e-01 0.0000000000000000e+00  -1.1978037867587972e-02 4.2461462344328010e-01 0.0000000000000000e+00  7.8186018406735669e-02 5.0867895570596611e-01 0.0000000000000000e+00  -9.6001192820182775e-03 2.5391970071613224e-01 0.0000000000000000e+00  -7.4799076111342153e-03 3.7723430864475127e-01 0.0000000000000000e+00  -1.6769625464462372e-03 2.6416185181592705e-01 0.0000000000000000e+00  -1.4337758140806085e-02 3.2689695966682891e-01 0.0000000000000000e+00  8.1367132694611759e-03 2.4256593481062808e-01 0.0000000000000000e+00  -8.5778588875815053e-04 2.0672451985941839e-01 0.0000000000000000e+00  -8.7621822486225881e-03 2.8338024893238828e-01 0.0000000000000000e+00  5.1993704822999448e-03 5.0270563025017749e-02 0.0000000000000000e+00  -1.1750490278350438e-03 1.9406240262919391e-01 0.0000000000000000e+00  -8.4127594098920913e-02 -3.4320434297197289e-01 0.0000000000000000e+00  2.9236906110856006e-03 2.9437995423491603e-01 0.0000000000000000e+00  -1.9601712455235343e-02 3.0868130397579491e-01 0.0000000000000000e+00  2.7245776631471368e-02 -1.1019620482312537e-01 0.0000000000000000e+00  1.7209030028698207e-02 1.2226953109899871e-01 0.0000000000000000e+00  1.0367532300983440e-02 3.1862603740465689e-01 0.0000000000000000e+00  -1.4332569473693707e-02 2.9801423034101793e-01 0.0000000000000000e+00  -1.0901166242300470e-02 1.7553925492833153e-01 0.0000000000000000e+00  1.3415853041598863e-03 3.0371139978666450e-01 0.0000000000000000e+00  1.6078863063705720e-02 1.4804812369640508e-01 0.0000000000000000e+00  6.8657344325550717e-04 1.7845077115637858e-01 0.0000000000000000e+00  3.7403573378628498e-03 2.8960984835963904e-01 0.0000000000000000e+00  -2.0768856031948670e-03 4.3063392691133412e-01 0.0000000000000000e+00  1.5575419498597403e-02 2.0419385766926612e-01 0.0000000000000000e+00  7.8611735238165743e-03 2.3512011112269626e-01 0.0000000000000000e+00  -4.8993295751365296e-02 -3.4647902429503813e-01 0.0000000000000000e+00  1.3485602455328327e-01 -3.0282788745846584e-01 0.0000000000000000e+00  -1.3890598578868196e-01 1.6829021403098995e-01 0.0000000000000000e+00  1.7946168633333853e-02 -3.4050532198306738e-01 0.00000