<?xml version="1.0"?>
<VTKFile type="UnstructuredGrid"  version="0.1"  >
<UnstructuredGrid>
<Piece  NumberOfPoints="1419" NumberOfCells="2698">
<Points>
<DataArray  type="Float64"  NumberOfComponents="3"  format="ascii">-1.784112123809954e-10 -8.584407697046526e-08 0  2.876702020877484e-10 0.4099999138518536 0  2.500000000102293 -1.266133586522425e-07 0  2.500000000102293 0.4099998733866427 0  0.6000000003941246 0.1899998674159865 0  0.5999999997993868 0.209999867884172 0  0.25 0.2 0  0.1500000000480979 0.1999999147344857 0  0.2489897948556636 0.21 0  0.2489897948556636 0.19 0  0.6000000001318304 0.1999998666003342 0  2.825906923470047e-10 0.3807141995892728 0  2.68082968473855e-10 0.3514284853663321 0  2.435393243797445e-10 0.3221427711734852 0  2.087128953723066e-10 0.2928570569901644 0  1.6524907747433e-10 0.2635713428007295 0  1.147555424826328e-10 0.2342856285947437 0  5.918538055678054e-11 0.2049999143565534 0  3.199740161337696e-12 0.1757142000890744 0  -4.909794346607744e-11 0.1464284857898921 0  -9.504547235821177e-11 0.1171427714652112 0  -1.310080721637996e-10 0.08785705712498718 0  -1.575888539833287e-10 0.05857134278340075 0  -1.733809099030813e-10 0.02928562845612574 0  0.03015443742060045 -8.586026907479456e-08 0  0.0614000196647239 -8.591875263661071e-08 0  0.09377624053974803 -8.605057540079758e-08 0  0.1273239954788239 -8.63097697382334e-08 0  0.1620856857069064 -8.679323133771703e-08 0  0.1981052429394903 -8.773878316270382e-08 0  0.2354281836530306 -8.950226911933295e-08 0  0.2741016571629392 -9.231637140242718e-08 0  0.3141745516818277 -9.622524655616994e-08 0  0.3556974922172342 -1.011212962042556e-07 0  0.3987229539295685 -1.064790587162874e-07 0  0.4433053053223777 -1.1176629868526e-07 0  0.4895008758730268 -1.165876012750613e-07 0  0.5373680610009242 -1.205190156640429e-07 0  0.5869673344544191 -1.233150678500054e-07 0  0.638361367825184 -1.250975820245307e-07 0  0.6916151140058228 -1.260082306976349e-07 0  0.7467958597105474 -1.26414601172503e-07 0  0.803973346524088 -1.265808684001189e-07 0  0.8632198140720511 -1.266357657555088e-07 0  0.9246101328012631 -1.266449993634333e-07 0  0.9882218812033815 -1.266391060731883e-07 0  1.054135445665365 -1.266315541484953e-07 0  1.122434100647648 -1.26625142286069e-07 0  1.193204177245183 -1.266204681840236e-07 0  1.26653508998272 -1.266174758061896e-07 0  1.342519516149199 -1.266157104349907e-07 0  1.421253448606508 -1.266146636260993e-07 0  1.502836389208709 -1.2661404890322e-07 0  1.587371439861206 -1.266137176441596e-07 0  1.674965418879705 -1.266135422449724e-07 0  1.765729001927856 -1.266134488733339e-07 0  1.859776908982384 -1.266134029647314e-07 0  1.957227977589359 -1.266133788905024e-07 0  2.058205329972238 -1.266133679302669e-07 0  2.162836591292245 -1.266133623366102e-07 0  2.271253957393158 -1.266133599663061e-07 0  2.383594446905718 -1.266133589518929e-07 0  2.500000000102293 0.1024998733864027 0  2.500000000102293 0.2049998733861163 0  2.500000000102293 0.3074998733863608 0  2.383594446905949 0.409999873386643 0  2.271253957393607 0.409999873386644 0  2.16283659129289 0.4099998733866465 0  2.058205329973066 0.4099998733866518 0  1.957227977590355 0.4099998733866627 0  1.859776908983529 0.4099998733866879 0  1.765729001929128 0.4099998733867337 0  1.674965418881072 0.4099998733868309 0  1.587371439862627 0.4099998733870069 0  1.502836389210103 0.4099998733873422 0  1.42125344860774 0.4099998733879906 0  1.342519516150075 0.4099998733890929 0  1.26653508998291 0.4099998733910224 0  1.193204177244067 0.409999873394663 0  1.12243410064426 0.4099998734012079 0  1.054135445658418 0.4099998734121842 0  0.9882218811903259 0.4099998734340288 0  0.9246101327786566 0.4099998734743087 0  0.8632198140349412 0.4099998735517289 0  0.8039733464664898 0.4099998737068603 0  0.7467958596263681 0.4099998740176939 0  0.6916151138954729 0.4099998746190701 0  0.6383613677093685 0.4099998757688574 0  0.5869673343894961 0.4099998776859975 0  0.5373680610660897 0.4099998805357271 0  0.4895008761486475 0.4099998843929675 0  0.4433053058439682 0.4099998889762072 0  0.3987229546799947 0.4099998939511612 0  0.3556974931397449 0.4099998989391556 0  0.31417455269698 0.4099999034970184 0  0.2741016581838141 0.4099999072364038 0  0.235428184615195 0.4099999099066468 0  0.1981052438033733 0.4099999116553588 0  0.1620856864596712 0.4099999126781944 0  0.1273239961291106 0.4099999132466494 0  0.09377624110754593 0.409999913573136 0  0.06140002017457742 0.4099999137422733 0  0.03015443789661813 0.4099999138299821 0  0.2497468076502589 0.2050254481002335 0  0.2497468076502614 0.1949745518997913 0  0.2469965246059174 0.1829316639069437 0  0.2439893728375284 0.1762315801751736 0  0.2400332140447812 0.1700442708337782 0  0.2352133965693573 0.1645032148106552 0  0.2296339009802607 0.159727950590586 0  0.2234150968204929 0.155821497031731 0  0.2166911457945819 0.152868129828281 0  0.209607107421532 0.1509315633718437 0  0.2023158095881548 0.1500535760340593 0  0.1949745514997099 0.150253109085294 0  0.1877417101863719 0.1515258577549798 0  0.1807733237396548 0.1538443642947454 0  0.1742197250231196 0.1571586102112911 0  0.1682222984513631 0.1613970954218211 0  0.1629104298327375 0.1664683806994457 0  0.1583987150506087 0.1722630603880895 0  0.1547844878296682 0.1786561226345643 0  0.1521457198951979 0.1855096463606162 0  0.1505393388522986 0.1926757766937898 0  0.1505393389395253 0.207324052793654 0  0.152145720070552 0.2144901831846036 0  0.1547844880914532 0.2213437070108366 0  0.1583987154004706 0.2277367694124564 0  0.1629104302696751 0.2335314493212439 0  0.1682222989776741 0.2386027349165224 0  0.1742197256376977 0.2428412205543564 0  0.1807733244449157 0.2461554670637587 0  0.1877417109835418 0.2484739744186565 0  0.1949745523908662 0.2497467242118173 0  0.2023158105740874 0.2499462587486898 0  0.2096071085066975 0.2490682734862398 0  0.216691146978892 0.2471317097644816 0  0.2234150981071282 0.2441783463905817 0  0.2296339023671761 0.2402718980450704 0  0.2352133980487074 0.2354966412462298 0  0.2400332155930567 0.229955595706365 0  0.2439893743829205 0.2237683032292634 0  0.2469965259446445 0.2170682491596754 0  0.2564580980729237 0.2099999562870803 0  0.2639264006336252 0.2099999413655902 0  0.2713947028443866 0.20999993217353 0  0.2788630053614451 0.2099999257262019 0  0.2863313074677086 0.2099999207062888 0  0.2937996098916731 0.2099999165659663 0  0.3012679120003767 0.2099999128058476 0  0.3087362140572339 0.2099999102014338 0  0.3162045163986567 0.2099999076867918 0  0.3236728184454215 0.2099999053648947 0  0.3311411207848861 0.2099999032672644 0  0.3386094228300697 0.20999990132657 0  0.3460777251156372 0.2099998994774814 0  0.3535460272109046 0.2099998975365013 0  0.3610143293376994 0.2099998961638948 0  0.3684826316231083 0.2099998946857364 0  0.3759509337073139 0.2099998932235514 0  0.3834192359996546 0.2099998918193388 0  0.3908875380854822 0.2099998904675888 0  0.3983558403866164 0.2099998891763588 0  0.405824142462079 0.2099998878960389 0  0.4132924447431581 0.2099998866018799 0  0.4207607468371666 0.2099998851514405 0  0.428229048966187 0.2099998841852291 0  0.4356973512385001 0.2099998830817413 0  0.4431656533445524 0.2099998819354406 0  0.4506339556229549 0.2099998807852813 0  0.4581022577050062 0.2099998796518401 0  0.465570559988262 0.2099998785260789 0  0.4730388620500605 0.2099998774145587 0  0.4805071643421397 0.2099998763076391 0  0.4879754663974499 0.2099998751996598 0  0.49544376869146 0.209999874113564 0  0.5029120706937094 0.2099998730486002 0  0.5103803729925793 0.2099998719790859 0  0.5178486750054527 0.2099998709485922 0  0.5253169774016979 0.2099998699209366 0  0.5327852793545079 0.2099998689185285 0  0.5402535817024371 0.2099998679540856 0  0.5477218836143288 0.2099998670408569 0  0.5551901860044527 0.2099998659889955 0  0.5626584879364144 0.2099998645871767 0  0.570126789915649 0.2099998649318163 0  0.5775950926263193 0.2099998650145762 0  0.5850633945554686 0.2099998654216492 0  0.5925316972280895 0.2099998666427026 0  0.6000000001438101 0.204999867141598 0  0.6000000000561959 0.1949998670861921 0  0.5925316986002855 0.1899998656610737 0  0.5850633968048533 0.1899998643840388 0  0.5775950942070136 0.1899998638877086 0  0.5701267923722089 0.1899998638194855 0  0.5626584899046976 0.1899998634779464 0  0.5551901873763737 0.1899998648237279 0  0.5477218853267365 0.1899998657318192 0  0.5402535827366335 0.189999866584741 0  0.5327852806803743 0.1899998675111879 0  0.5253169781072359 0.1899998684902515 0  0.5178486759618591 0.1899998695254717 0  0.5103803734336324 0.1899998705958692 0  0.502912071312665 0.1899998717026259 0  0.495443768831151 0.1899998728152986 0  0.4879754666922469 0.1899998739381544 0  0.4805071642221245 0.1899998750744329 0  0.4730388620349065 0.1899998762296064 0  0.4655705595844343 0.1899998774038849 0  0.4581022574216904 0.1899998785964781 0  0.4506339550010189 0.1899998798002199 0  0.4431656528294387 0.1899998810202848 0  0.4356973504053548 0.1899998822547809 0  0.4282290481945524 0.1899998834737104 0  0.4207607458117062 0.1899998845401377 0  0.4132924434616013 0.189999886084955 0  0.4058241412756105 0.189999887498242 0  0.3983558389096326 0.189999888856126 0  0.3908875367096186 0.189999890244233 0  0.3834192343394447 0.189999891661995 0  0.3759509321309621 0.1899998931177987 0  0.3684826297678365 0.1899998946255089 0  0.3610143275832211 0.1899998961117582 0  0.3535460252273994 0.1899998975142612 0  0.346077722840594 0.1899998995076986 0  0.3386094206536174 0.1899999014415926 0  0.331141118253558 0.1899999034204991 0  0.3236728161093008 0.1899999055430407 0  0.3162045137057047 0.1899999078673947 0  0.3087362115655813 0.1899999103457355 0  0.3012679091358612 0.1899999129273715 0  0.2937996067640881 0.1899999166790846 0  0.2863313047117755 0.1899999208507404 0  0.2788630023430639 0.1899999258590144 0  0.2713947003686738 0.1899999322377383 0  0.2639263980859137 0.189999941421848 0  0.2564580961495029 0.189999956339543
[...]
<PointData  Vectors="f_30-0"> 
<DataArray  type="Float64"  Name="f_30-0"  NumberOfComponents="3" format="ascii">0.0000000000000000e+00 0.0000000000000000e+00 0.0000000000000000e+00  0.0000000000000000e+00 0.0000000000000000e+00 0.0000000000000000e+00  0.0000000000000000e+00 0.0000000000000000e+00 0.0000000000000000e+00  0.0000000000000000e+00 0.0000000000000000e+00 0.0000000000000000e+00  6.2669104747982134e-03 -5.4987132987452617e-03 0.0000000000000000e+00  -5.8392998297464114e-03 -4.5838690759494915e-03 0.0000000000000000e+00  0.0000000000000000e+00 0.0000000000000000e+00 0.0000000000000000e+00  0.0000000000000000e+00 0.0000000000000000e+00 0.0000000000000000e+00  0.0000000000000000e+00 0.0000000000000000e+00 0.0000000000000000e+00  0.0000000000000000e+00 0.0000000000000000e+00 0.0000000000000000e+00  2.2480748495464177e-03 -2.0370047053621217e-02 0.0000000000000000e+00  0.0000000000000000e+00 0.0000000000000000e+00 0.0000000000000000e+00  0.0000000000000000e+00 0.0000000000000000e+00 0.0000000000000000e+00  0.0000000000000000e+00 0.0000000000000000e+00 0.0000000000000000e+00  0.0000000000000000e+00 0.0000000000000000e+00 0.0000000000000000e+00  0.0000000000000000e+00 0.0000000000000000e+00 0.0000000000000000e+00  0.0000000000000000e+00 0.0000000000000000e+00 0.0000000000000000e+00  0.0000000000000000e+00 0.0000000000000000e+00 0.0000000000000000e+00  0.0000000000000000e+00 0.0000000000000000e+00 0.0000000000000000e+00  0.0000000000000000e+00 0.0000000000000000e+00 0.0000000000000000e+00  0.0000000000000000e+00 0.0000000000000000e+00 0.0000000000000000e+00  0.0000000000000000e+00 0.0000000000000000e+00 0.0000000000000000e+00  0.0000000000000000e+00 0.0000000000000000e+00 0.0000000000000000e+00  0.0000000000000000e+00 0.0000000000000000e+00 0.0000000000000000e+00  0.0000000000000000e+00 0.0000000000000000e+00 0.0000000000000000e+00  0.0000000000000000e+00 0.0000000000000000e+00 0.0000000000000000e+00  0.0000000000000000e+00 0.0000000000000000e+00 0.0000000000000000e+00  0.0000000000000000e+00 0.0000000000000000e+00 0.0000000000000000e+00  0.0000000000000000e+00 0.0000000000000000e+00 0.0000000000000000e+00  0.0000000000000000e+00 0.0000000000000000e+00 0.0000000000000000e+00  0.0000000000000000e+00 0.0000000000000000e+00 0.0000000000000000e+00  0.0000000000000000e+00 0.0000000000000000e+00 0.0000000000000000e+00  0.0000000000000000e+00 0.0000000000000000e+00 0.0000000000000000e+00  0.0000000000000000e+00 0.0000000000000000e+00 0.0000000000000000e+00  0.0000000000000000e+00 0.0000000000000000e+00 0.0000000000000000e+00  0.0000000000000000e+00 0.0000000000000000e+00 0.0000000000000000e+00  0.0000000000000000e+00 0.0000000000000000e+00 0.0000000000000000e+00  0.0000000000000000e+00 0.0000000000000000e+00 0.0000000000000000e+00  0.0000000000000000e+00 0.0000000000000000e+00 0.0000000000000000e+00  0.0000000000000000e+00 0.0000000000000000e+00 0.0000000000000000e+00  0.0000000000000000e+00 0.0000000000000000e+00 0.0000000000000000e+00  0.0000000000000000e+00 0.0000000000000000e+00 0.0000000000000000e+00  0.0000000000000000e+00 0.0000000000000000e+00 0.0000000000000000e+00  0.0000000000000000e+00 0.0000000000000000e+00 0.0000000000000000e+00  0.0000000000000000e+00 0.0000000000000000e+00 0.0000000000000000e+00  0.0000000000000000e+00 0.0000000000000000e+00 0.0000000000000000e+00  0.0000000000000000e+00 0.0000000000000000e+00 0.0000000000000000e+00  0.0000000000000000e+00 0.0000000000000000e+00 0.0000000000000000e+00  0.0000000000000000e+00 0.0000000000000000e+00 0.0000000000000000e+00  0.0000000000000000e+00 0.0000000000000000e+00 0.0000000000000000e+00  0.0000000000000000e+00 0.0000000000000000e+00 0.0000000000000000e+00  0.0000000000000000e+00 0.0000000000000000e+00 0.0000000000000000e+00  0.0000000000000000e+00 0.0000000000000000e+00 0.0000000000000000e+00  0.0000000000000000e+00 0.0000000000000000e+00 0.0000000000000000e+00  0.0000000000000000e+00 0.0000000000000000e+00 0.0000000000000000e+00  0.0000000000000000e+00 0.0000000000000000e+00 0.0000000000000000e+00  0.0000000000000000e+00 0.0000000000000000e+00 0.0000000000000000e+00  0.0000000000000000e+00 0.0000000000000000e+00 0.0000000000000000e+00  0.0000000000000000e+00 0.0000000000000000e+00 0.0000000000000000e+00  0.0000000000000000e+00 0.0000000000000000e+00 0.0000000000000000e+00  0.0000000000000000e+00 0.0000000000000000e+00 0.0000000000000000e+00  0.0000000000000000e+00 0.0000000000000000e+00 0.0000000000000000e+00  5.4251400817277074e-10 2.9190417050345620e-10 0.0000000000000000e+00  8.4708862329146332e-12 3.6179847430827777e-10 0.0000000000000000e+00  -7.3686069496898494e-10 2.8893576712777188e-10 0.0000000000000000e+00  0.0000000000000000e+00 0.0000000000000000e+00 0.0000000000000000e+00  0.0000000000000000e+00 0.0000000000000000e+00 0.0000000000000000e+00  0.0000000000000000e+00 0.0000000000000000e+00 0.0000000000000000e+00  0.0000000000000000e+00 0.0000000000000000e+00 0.0000000000000000e+00  0.0000000000000000e+00 0.0000000000000000e+00 0.0000000000000000e+00  0.0000000000000000e+00 0.0000000000000000e+00 0.0000000000000000e+00  0.0000000000000000e+00 0.0000000000000000e+00 0.0000000000000000e+00  0.0000000000000000e+00 0.0000000000000000e+00 0.0000000000000000e+00  0.0000000000000000e+00 0.0000000000000000e+00 0.0000000000000000e+00  0.0000000000000000e+00 0.0000000000000000e+00 0.0000000000000000e+00  0.0000000000000000e+00 0.0000000000000000e+00 0.0000000000000000e+00  0.0000000000000000e+00 0.0000000000000000e+00 0.0000000000000000e+00  0.0000000000000000e+00 0.0000000000000000e+00 0.0000000000000000e+00  0.0000000000000000e+00 0.0000000000000000e+00 0.0000000000000000e+00  0.0000000000000000e+00 0.0000000000000000e+00 0.0000000000000000e+00  0.0000000000000000e+00 0.0000000000000000e+00 0.0000000000000000e+00  0.0000000000000000e+00 0.0000000000000000e+00 0.0000000000000000e+00  0.0000000000000000e+00 0.0000000000000000e+00 0.0000000000000000e+00  0.0000000000000000e+00 0.0000000000000000e+00 0.0000000000000000e+00  0.0000000000000000e+00 0.0000000000000000e+00 0.0000000000000000e+00  0.0000000000000000e+00 0.0000000000000000e+00 0.0000000000000000e+00  0.0000000000000000e+00 0.0000000000000000e+00 0.0000000000000000e+00  0.0000000000000000e+00 0.0000000000000000e+00 0.0000000000000000e+00  0.0000000000000000e+00 0.0000000000000000e+00 0.0000000000000000e+00  0.0000000000000000e+00 0.0000000000000000e+00 0.0000000000000000e+00  0.0000000000000000e+00 0.0000000000000000e+00 0.0000000000000000e+00  0.0000000000000000e+00 0.0000000000000000e+00 0.0000000000000000e+00  0.0000000000000000e+00 0.0000000000000000e+00 0.0000000000000000e+00  0.0000000000000000e+00 0.0000000000000000e+00 0.0000000000000000e+00  0.0000000000000000e+00 0.0000000000000000e+00 0.0000000000000000e+00  0.0000000000000000e+00 0.0000000000000000e+00 0.0000000000000000e+00  0.0000000000000000e+00 0.0000000000000000e+00 0.0000000000000000e+00  0.0000000000000000e+00 0.0000000000000000e+00 0.0000000000000000e+00  0.0000000000000000e+00 0.0000000000000000e+00 0.0000000000000000e+00  0.0000000000000000e+00 0.0000000000000000e+00 0.0000000000000000e+00  0.0000000000000000e+00 0.0000000000000000e+00 0.0000000000000000e+00  0.0000000000000000e+00 0.0000000000000000e+00 0.0000000000000000e+00  0.0000000000000000e+00 0.0000000000000000e+00 0.0000000000000000e+00  0.0000000000000000e+00 0.0000000000000000e+00 0.0000000000000000e+00  0.0000000000000000e+00 0.0000000000000000e+00 0.0000000000000000e+00  0.0000000000000000e+00 0.0000000000000000e+00 0.0000000000000000e+00  0.0000000000000000e+00 0.0000000000000000e+00 0.0000000000000000e+00  0.0000000000000000e+00 0.0000000000000000e+00 0.0000000000000000e+00  0.0000000000000000e+00 0.0000000000000000e+00 0.0000000000000000e+00  0.0000000000000000e+00 0.0000000000000000e+00 0.0000000000000000e+00  0.0000000000000000e+00 0.0000000000000000e+00 0.0000000000000000e+00  0.0000000000000000e+00 0.0000000000000000e+00 0.0000000000000000e+00  0.0000000000000000e+00 0.0000000000000000e+00 0.0000000000000000e+00  0.0000000000000000e+00 0.0000000000000000e+00 0.0000000000000000e+00  0.0000000000000000e+00 0.0000000000000000e+00 0.0000000000000000e+00  0.0000000000000000e+00 0.0000000000000000e+00 0.0000000000000000e+00  0.0000000000000000e+00 0.0000000000000000e+00 0.0000000000000000e+00  0.0000000000000000e+00 0.0000000000000000e+00 0.0000000000000000e+00  0.0000000000000000e+00 0.0000000000000000e+00 0.0000000000000000e+00  0.0000000000000000e+00 0.0000000000000000e+00 0.0000000000000000e+00  0.0000000000000000e+00 0.0000000000000000e+00 0.0000000000000000e+00  0.0000000000000000e+00 0.0000000000000000e+00 0.0000000000000000e+00  0.0000000000000000e+00 0.0000000000000000e+00 0.0000000000000000e+00  0.0000000000000000e+00 0.0000000000000000e+00 0.0000000000000000e+00  0.0000000000000000e+00 0.0000000000000000e+00 0.0000000000000000e+00  0.0000000000000000e+00 0.0000000000000000e+00 0.0000000000000000e+00  0.0000000000000000e+00 0.0000000000000000e+00 0.0000000000000000e+00  0.0000000000000000e+00 0.0000000000000000e+00 0.0000000000000000e+00  0.0000000000000000e+00 0.0000000000000000e+00 0.0000000000000000e+00  0.0000000000000000e+00 0.0000000000000000e+00 0.0000000000000000e+00  0.0000000000000000e+00 0.0000000000000000e+00 0.0000000000000000e+00  0.0000000000000000e+00 0.0000000000000000e+00 0.0000000000000000e+00  0.0000000000000000e+00 0.0000000000000000e+00 0.0000000000000000e+00  0.0000000000000000e+00 0.0000000000000000e+00 0.0000000000000000e+00  0.0000000000000000e+00 0.0000000000000000e+00 0.0000000000000000e+00  0.0000000000000000e+00 0.0000000000000000e+00 0.0000000000000000e+00  0.0000000000000000e+00 0.0000000000000000e+00 0.0000000000000000e+00  0.0000000000000000e+00 0.0000000000000000e+00 0.0000000000000000e+00  0.0000000000000000e+00 0.0000000000000000e+00 0.0000000000000000e+00  0.0000000000000000e+00 0.0000000000000000e+00 0.0000000000000000e+00  0.0000000000000000e+00 0.0000000000000000e+00 0.0000000000000000e+00  0.0000000000000000e+00 0.0000000000000000e+00 0.0000000000000000e+00  0.0000000000000000e+00 0.0000000000000000e+00 0.0000000000000000e+00  6.7817258838276584e-03 2.0071531200945496e-03 0.0000000000000000e+00  4.8358457148954172e-03 -1.0070095511813483e-02 0.0000000000000000e+00  1.3552902363613444e-03 -1.4461864778175758e-02 0.0000000000000000e+00  3.8268647780876162e-03 -1.6143898116795861e-02 0.0000000000000000e+00  5.7719785796279553e-04 -1.5678247143031180e-02 0.0000000000000000e+00  2.9806574867779173e-03 -1.6580022896399801e-02 0.0000000000000000e+00  1.2123163491645182e-03 -1.3930045823793142e-02 0.0000000000000000e+00  -7.1039919726413776e-04 -1.4830970114214413e-02 0.0000000000000000e+00  2.3729739690054766e-03 -1.3129800995640772e-02 0.0000000000000000e+00  -7.4055695142080332e-04 -1.3158227685425395e-02 0.0000000000000000e+00  2.0257364569102078e-03 -1.2446447201360544e-02 0.0000000000000000e+00  -6.3853100565175512e-04 -1.1955993637251076e-02 0.0000000000000000e+00  2.0349405878714007e-03 -1.1776539486853158e-02 0.0000000000000000e+00  2.4175887702195176e-05 -9.8653838186742258e-03 0.0000000000000000e+00  -1.5827073935852467e-04 -1.0690674456878387e-02 0.0000000000000000e+00  7.8580434006011459e-04 -1.0132394949096195e-02 0.0000000000000000e+00  -2.3549815885618553e-04 -1.0424333078319092e-02 0.0000000000000000e+00  9.5839461264880354e-04 -1.0091665765531475e-02 0.0000000000000000e+00  -4.3451366724699754e-04 -1.0169243661863860e-02 0.0000000000000000e+00  1.2454851925484030e-03 -1.0218681131094949e-02 0.0000000000000000e+00  -7.5867133659787624e-04 -1.0212725018933919e-02 0.0000000000000000e+00  1.7325971926935790e-03 -1.0172346236406615e-02 0.0000000000000000e+00  -2.5898373649653700e-04 -8.9069884196822085e-03 0.0000000000000000e+00  -5.6268583093074288e-04 -1.0398958038307926e-02 0.0000000000000000e+00  6.7726581341066893e-04 -1.1107985756903246e-02 0.0000000000000000e+00  -2.8089810261208064e-04 -1.1380748504500458e-02 0.0000000000000000e+00  7.6620224879786415e-04 -1.2005003938946216e-02 0.0000000000000000e+00  -9.1488022758401085e-04 -1.2729749774021415e-02 0.0000000000000000e+00  1.4904829183416612e-03 -1.3106894340191905e-02 0.0000000000000000e+00  -1.5036403733278286e-03 -1.3569066371539869e-02 0.0000000000000000e+00  1.7901252481500910e-03 -1.4433760400947503e-02 0.0000000000000000e+00  -1.3414421112110933e-03 -1.4898243734496806e-02 0.0000000000000000e+00  1.4397750089394864e-03 -1.6702583024628192e-02 0.0000000000000000e+00  -1.5617623350370053e-03 -1.7383601417536577e-02 0.0000000000000000e+00  1.5909044494256857e-03 -1.8283066759351353e-02 0.0000000000000000e+00  -2.2018822994400319e-03 -1.8723933482840776e-02 0.0000000000000000e+00  2.2561042720746940e-03 -2.0598668270566355e-02 0.0000000000000000e+00  -3.0073749530796796e-03 -2.2528999051160591e-02 0.0000000000000000e+00  2.6168160799511287e-03 -2.5160717732364321e-02 0.0000000000000000e+00  -3.2595949993866045e-03 -2.5477637489555931e-02 0.0000000000000000e+00  1.8502786042651148e-03 -2.8809560626811576e-02 0.0000000000000000e+00  4.5806743740446149e-04 -2.7216265299142933e-02 0.0000000000000000e+00  -5.9205768214502675e-03 -3.3836078543414812e-02 0.0000000000000000e+00  1.9624748963024382e-03 -3.5995776964578390e-02 0.0000000000000000e+00  -6.5239131873818046e-03 -3.9061895538347019e-02 0.0000000000000000e+00  5.6380152913162074e-04 -3.0290393994760075e-02 0.0000000000000000e+00  1.1789808180302282e-03 -1.6563115837932955e-02 0.0000000000000000e+00  -1.3722245778481053e-03 -1.3799192546091700e-02 0.0000000000000000e+00  2.1397258314088622e-03 -3.0058058670107080e-02 0.0000000000000000e+00  5.9559717788602385e-03 -3.7601687959521138e-02 0.0000000000000000e+00  -1.2055521902865651e-03 -3.6098667243164087e-02 0.0000000000000000e+00  5.3834703121706396e-03 -3.4816744957176987e-02 0.0000000000000000e+00  4.1849307049115591e-04 -2.6656313609410762e-02 0.0000000000000000e+00  -2.3838443722004050e-03 -2.8273779554897481e-02 0.0000000000000000e+00  3.4084037639572316e-03 -2.3802066086662486e-02 0.0000000000000000e+00  -2.4926355306760326e-03 -2.3195429997768420e-02 0.0000000000000000e+00  2.6990226155768934e-03 -2.1481468898187167e-02 0.0000000000000000e+00  -2.0305605068331508e-03 -2.0803433018721014e-02 0.0000000000000000e+00  2.0685176285937809e-03 -1.8697016198540736e-02 0.0000000000000000e+00  -1.9204990165729368e-03 -1.7608023502969621e-02 0.0000000000000000e+00  1.7882936690640596e-03 -1.5485030491971721e-02 0.0000000000000000e+00  -1.8248728216412424e-03 -1.4859893994770404e-02 0.0000000000000000e+00  1.4516844725407840e-03 -1.4131071466425190e-02 0.0000000000000000e+00  -1.5916902454346925e-03 -1.3854950834645779e-02 0.0000000000000000e+00  1.2019858130367786e-03 -1.3012897810760253e-02 0.0000000000000000e+00  -1.5132170104671893e-03 -1.2464280384991431e-02 0.0000000000000000e+00  1.1039263560122003e-03 -1.1487057990744908e-02 0.0000000000000000e+00  -1.4925917521079355e-03 -1.1197298010254726e-02 0.0000000000000000e+00  9.4083485477641522e-04 -1.0870787929781555e-02 0.0000000000000000e+00  -1.3317300045564689e-03 -1.0526455134953403e-02 0.0000000000000000e+00  9.3968669279915606e-04 -1.0432398865036857e-02 0.0000000000000000e+00  -5.1566683361233023e-04 -9.0351656929444930e-03 0.0000000000000000e+00  -1.1158869607220834e-03 -1.0111673003017742e-02 0.0000000000000000e+00  1.6104976590696437e-04 -9.9629590694039986e-03 0.0000000000000000e+00  -1.0943827503026205e-03 -1.0518534812976581e-02 0.0000000000000000e+00  2.9091340757691049e-04 -1.0920369858481325e-02 0.0000000000000000e+00  -1.0598060746010256e-03 -1.1008482808809698e-02 0.0000000000000000e+00  2.7584659077031819e-04 -1.0979159342919589e-02 0.0000000000000000e+00  -9.4306647576275916e-04 -1.0592913288023344e-02 0.0000000000000000e+00  2.6429117144391787e-04 -1.0634989590602191e-02 0.0000000000000000e+00  -6.1449468768266650e-05 -9.9074068799252773e-03 0.0000000000000000e+00  -2.1663988266103140e-03 -1.1840961242212048e-02 0.0000000000000000e+00  6.7493400375019858e-04 -1.2294380817810502e-02 0.0000000000000000e+00  -2.3220579228916366e-03 -1.2920373748201356e-02 0.0000000000000000e+00  9.3615102788408662e-04 -1.3682511447837420e-02 0.0000000000000000e+00  -2.6013254767632103e-03 -1.3799231420271165e-02 0.0000000000000000e+00  8.4116853442259840e-04 -1.4764902260244699e-02 0.0000000000000000e+00  -1.2318988390768810e-03 -1.3966520232354576e-02 0.0000000000000000e+00  -2.8989822545384975e-03 -1.6637616983314552e-02 0.0000000000000000e+00  -4.1776352439469166e-04 -1.5868286929963008e-02 0.0000000000000000e+00  -4.0587831293425643e-03 -1.6483536257240253e-02 0.0000000000000000e+00  -1.4530323915591670e-03 -1.4119191683923182e-02 0.0000000000000000e+00  -4.7283463393055060e-03 -9.9497312474482579e-03 0.0000000000000000e+00  -6.8390689483149086e-03 1.9200759134085450e-03 0.0000000000000000e+00  5.4052993032787571e-06 6.8478735689349824e-03 0.0000000000000000e+00  4.4102356646248875e-04 2.4485818768415973e-02 0.0000000000000000e+00  -5.9959394097912463e-04 2.7130315246743898e-02 0.0000000000000000e+00  7.0369421559142453e-04 2.1669336735742645e-02 0.0000000000000000e+00  2.6390093730005345e-04 1.2887750022507517e-02 0.0000000000000000e+00  5.6453459339412707e-05 1.8545575707090225e-02 0.0000000000000000e+00  -1.4961068765742409e-04 1.3099436276984761e-02 0.0000000000000000e+00  1.6831565918401562e-05 1.6023681082577065e-02 0.0000000000000000e+00  3.6288424101522070e-04 1.1546119886348785e-02 0.0000000000000000e+00  1.6174180964501411e-05 1.0551410812179300e-02 0.0000000000000000e+00  3.9166055605805805e-05 1.3797726734170682e-02 0.0000000000000000e+00  2.4091917574007389e-04 8.5163929811388275e-03 0.0000000000000000e+00  4.2273369005347945e-05 1.0922275995299014e-02 0.0000000000000000e+00  -2.3656066623804859e-04 9.1904069297614206e-03 0.0000000000000000e+00  1.1533332419838858e-06 8.4892329356709064e-03 0.0000000000000000e+00  2.9203872731431709e-06 9.9767942516241041e-03 0.0000000000000000e+00  -1.9287075549036018e-05 1.2139750829319319e-02 0.0000000000000000e+00  -1.3160747452811320e-04 8.3893324360004729e-03 0.0000000000000000e+00  3.6706268806987937e-05 9.1305268283761731e-03 0.0000000000000000e+00  -6.7433357105829841e-05 7.9801156746577215e-03 0.0000000000000000e+00  -1.9162323280247912e-04 8.3867601498117776e-03 0.0000000000000000e+00  9.0442796575220525e-05 5.8587524312819841e-03 0.0000000000000000e+00  -2.2732673344120894e-06 6.2472751224890242e-03 0.0000000000000000e+00  1.1349822507297922e-05 1.8619036291545595e-02 0.0000000000000000e+00  1.8087846211141914e-05 8.7912250670871446e-03 0.0000000000000000e+00  6.9222233872834573e-05 2.3015370937461921e-02 0.0000000000000000e+00  -2.0153889768300634e-03 9.1490176772216665e-03 0.0000000000000000e+00  -8.9307969304457861e-04 1.1577676288188444e-02 0.0000000000000000e+00  -1.4869387794268505e-03 1.3855015074163358e-02 0.0000000000000000e+00  -1.3532670434516944e-04 1.1562340939037923e-02 0.0000000000000000e+00  -6.9972852564196273e-04 7.6190095242213507e-03 0.0000000000000000e+00  -4.3032159161246339e-04 7.7993769789169972e-03 0.0000000000000000e+00  -5.2508426968648841e-04 1.0043932917612972e-02 0.0000000000000000e+00  -2.7307942412842988e-04 5.8730532339750438e-03 0.0000000000000000e+00  -1.5568156476783798e-04 7.0430646050121618e-03 0.0000000000000000e+00  -2.5625983409455428e-04 6.6094185712511772e-03 0.0000000000000000e+00  -5.8410052694875527e-05 5.9400008244546677e-03 0.0000000000000000e+00  -1.9890618965941013e-04 6.6842255052180230e-03 0.0000000000000000e+00  -4.9214411914300126e-04 8.9367951929395471e-03 0.0000000000000000e+00  5.9356320077180986e-05 6.3074398324472177e-03 0.0000000000000000e+00  -5.3196156188573919e-05 5.9183032553452716e-03 0.0000000000000000e+00  1.2771811388696444e-03 7.8469702959581462e-04 0.0000000000000000e+00  -1.4066453731661007e-03 1.0147057365672621e-03 0.0000000000000000e+00  -6.6684219698816176e-03 1.7971728851323084e-02 0.0000000000000000e+00  2.0909884564130018e-03 9.5051734499557537e-03 0.000