<?xml version="1.0"?>
<VTKFile type="UnstructuredGrid"  version="0.1"  >
<UnstructuredGrid>
<Piece  NumberOfPoints="1419" NumberOfCells="2698">
<Points>
<DataArray  type="Float64"  NumberOfComponents="3"  format="ascii">4.362343284777096e-08 -1.867868177778605e-06 0  6.556971812738393e-08 0.4099981238480058 0  2.500000127332632 -2.778081100520579e-06 0  2.500000127332654 0.4099972219189225 0  0.6000001413794143 0.1899971339001344 0  0.6000001619624549 0.2099971339172961 0  0.25 0.2 0  0.1500000536570844 0.1999981456009436 0  0.2489897948556636 0.21 0  0.2489897948556636 0.19 0  0.6000001567194804 0.1999971235115906 0  6.531038509105395e-08 0.3807124101290517 0  6.45733600292226e-08 0.3514266973847922 0  6.334168933107871e-08 0.3221409853857197 0  6.162700973577428e-08 0.2928552736369344 0  5.952170795903107e-08 0.2635695617581624 0  5.711022724176049e-08 0.2342838494949454 0  5.449628017379266e-08 0.2049981364654803 0  5.188892099865211e-08 0.1757124227353578 0  4.947679217957084e-08 0.1464267082336429 0  4.737617957835298e-08 0.117140993104761 0  4.574699356283927e-08 0.08785527758211358 0  4.455223626258693e-08 0.05856956200640323 0  4.384728775632496e-08 0.02928384675423099 0  0.03015448099029346 -1.868247246367368e-06 0  0.06140006248464183 -1.869620478653468e-06 0  0.09377628206294678 -1.872734077725693e-06 0  0.1273240352013091 -1.878891712709376e-06 0  0.1620857232847722 -1.890437529958411e-06 0  0.1981052784066291 -1.913134410356692e-06 0  0.2354282177983327 -1.955643456298581e-06 0  0.2741016916129652 -2.023668040147348e-06 0  0.3141745886560424 -2.118175914637048e-06 0  0.3556975349163756 -2.235756734375087e-06 0  0.3987230052712096 -2.362360743099003e-06 0  0.4433053680404053 -2.483011109126986e-06 0  0.489500951803373 -2.587653872525577e-06 0  0.5373681504281733 -2.667595306491122e-06 0  0.5869674358894922 -2.720544154157381e-06 0  0.6383614787406265 -2.752482915112676e-06 0  0.6916152313015366 -2.768086402810275e-06 0  0.7467959809588163 -2.774887533991549e-06 0  0.8039734702026253 -2.777623743855033e-06 0  0.863219939193568 -2.778508953085095e-06 0  0.9246102587867122 -2.778642269791502e-06 0  0.9882220076828231 -2.778531301137778e-06 0  1.054135572457709 -2.778396996598799e-06 0  1.122434227617153 -2.778285132318906e-06 0  1.193204304326766 -2.778203996899e-06 0  1.266535217129939 -2.778152199028736e-06 0  1.342519643332834 -2.778121694966409e-06 0  1.421253575811191 -2.778103619762237e-06 0  1.50283651642556 -2.77809300988134e-06 0  1.587371567084553 -2.778087293885659e-06 0  1.674965546106473 -2.778084267755987e-06 0  1.76572912915644 -2.778082656925638e-06 0  1.85977703621186 -2.778081864947359e-06 0  1.957228104819303 -2.778081449644794e-06 0  2.058205457202396 -2.778081260572648e-06 0  2.162836718522511 -2.778081164078273e-06 0  2.271254084623469 -2.778081123189002e-06 0  2.383594574136049 -2.778081105689736e-06 0  2.500000127332632 0.102497221918664 0  2.500000127332643 0.2049972219183852 0  2.500000127332652 0.3074972219186374 0  2.383594574136317 0.4099972219189276 0  2.271254084623995 0.4099972219189457 0  2.162836718523327 0.4099972219189884 0  2.058205457203607 0.4099972219190804 0  1.957228104821106 0.4099972219192675 0  1.85977703621477 0.4099972219197032 0  1.765729129161255 0.4099972219204928 0  1.674965546115081 0.4099972219221705 0  1.587371567100035 0.4099972219252059 0  1.502836516453953 0.4099972219309885 0  1.421253575863935 0.4099972219421683 0  1.342519643426929 0.4099972219611665 0  1.266535217295061 0.409997221994401 0  1.193204304619151 0.4099972220570264 0  1.122434228124344 0.4099972221694282 0  1.054135573297677 0.4099972223575653 0  0.9882220090866871 0.4099972227307589 0  0.9246102610522865 0.4099972234171238 0  0.8632199428237649 0.4099972247338252 0  0.8039734758860132 0.4099972273732359 0  0.7467959896640973 0.4099972326813855 0  0.6916152441583426 0.4099972430601325 0  0.6383614970266319 0.4099972633801721 0  0.58696746089688 0.4099972985904851 0  0.537368182669508 0.4099973535763121 0  0.489500991300378 0.4099974328369261 0  0.4433054142810955 0.4099975326605496 0  0.3987230567839641 0.4099976461209381 0  0.3556975893697924 0.4099977636040631 0  0.3141746433817919 0.4099978729633455 0  0.274101743615787 0.409997963351707 0  0.2354282652299635 0.4099980280385249 0  0.1981053201540854 0.4099980704305445 0  0.1620857592357328 0.4099980952494695 0  0.1273240660500426 0.4099981090703795 0  0.09377630888864767 0.4099981170275113 0  0.06140008652670513 0.409998121162759 0  0.03015450340920408 0.4099981233113222 0  0.2497468076502589 0.2050254481002335 0  0.2497468076502614 0.1949745518997913 0  0.2469965216921998 0.1829308050938609 0  0.2439893750526418 0.1762304131228055 0  0.2400332216111653 0.1700429217838547 0  0.2352134089416636 0.164501750134807 0  0.2296339176556043 0.1597264033161549 0  0.2234151173177181 0.1558198904100384 0  0.2166911696997857 0.1528664800480005 0  0.2096071343501782 0.1509298824454182 0  0.2023158393745061 0.1500518710753725 0  0.1949745838674282 0.1502513869256924 0  0.1877417450178238 0.1515241225580778 0  0.1807733608642402 0.1538426196822719 0  0.1742197643869821 0.1571568584580204 0  0.1682223399375334 0.1613953385036485 0  0.1629104734313278 0.1664666198304224 0  0.1583987606824005 0.1722612966448894 0  0.154784535498984 0.1786543567240195 0  0.1521457695435964 0.1855078789154844 0  0.150539390508505 0.1926740081699619 0  0.1505393945013235 0.2073222834763082 0  0.1521457775682025 0.214488414123016 0  0.1547845474701422 0.2213419387273141 0  0.1583987766638082 0.2277350025416771 0  0.1629104933607269 0.2335296846554657 0  0.1682223638925881 0.2386009736258238 0  0.1742197922850317 0.2428394639497362 0  0.1807733927779374 0.2461537169798371 0  0.1877417809298929 0.2484722336867484 0  0.1949746238058311 0.2497449962868432 0  0.2023158832936095 0.2499445477550679 0  0.2096071823405351 0.2490665860425702 0  0.2166912216191901 0.2471300537119155 0  0.2234151731371076 0.2441767343667442 0  0.2296339772014051 0.2402703446421929 0  0.2352134717064843 0.235495171482526 0  0.2400332865905612 0.2299542419408418 0  0.2439894393995259 0.2237671307093075 0  0.2469965773432123 0.2170673861075508 0  0.2564581594343708 0.2099991222341803 0  0.2639264785822212 0.2099988270504689 0  0.2713947965210988 0.2099986355880857 0  0.2788630991959387 0.2099984865462895 0  0.2863314043925143 0.2099983614529348 0  0.2937997060265803 0.2099982518655633 0  0.3012680084911712 0.2099981530665249 0  0.3087363096640521 0.209998072826495 0  0.3162046161514845 0.2099979973606766 0  0.3236729166122381 0.209997927753733 0  0.3311412246821234 0.2099978638379906 0  0.3386095245693322 0.209997804959853 0  0.3460778320515947 0.2099977477498709 0  0.3535461328702738 0.2099976859335353 0  0.3610144331906338 0.2099976536678144 0  0.3684827386379376 0.2099976163635816 0  0.3759510357593285 0.2099975769416615 0  0.3834193401837999 0.2099975400695057 0  0.3908876364135444 0.2099975039578479 0  0.3983559406063097 0.2099974695253065 0  0.4058242358494136 0.2099974352143086 0  0.4132925392985335 0.2099973984057395 0  0.4207608341720678 0.2099973532670152 0  0.4282291328333883 0.2099973360483109 0  0.4356974375104578 0.2099973108178164 0  0.4431657359652903 0.2099972846642434 0  0.4506340426813255 0.2099972570714812 0  0.4581023421988721 0.2099972321121873 0  0.465570651403905 0.2099972082301095 0  0.4730389517530407 0.2099971859670328 0  0.4805072629850449 0.2099971648287792 0  0.4879755655149151 0.209997146278993 0  0.4954438806534172 0.2099971239253748 0  0.5029121848829256 0.2099971097772141 0  0.5103805001534771 0.2099971030165164 0  0.5178488037473633 0.2099970945997951 0  0.5253171189319328 0.2099970855117776 0  0.5327854227121231 0.2099970757669968 0  0.5402537384329544 0.2099970699927667 0  0.5477220431818587 0.2099970679936218 0  0.5551903582811328 0.2099970647421089 0  0.5626586640056205 0.2099970523620691 0  0.570126963335529 0.2099970774433913 0  0.577595271666221 0.2099970940709448 0  0.5850635701092317 0.2099971008586106 0  0.5925318714613653 0.2099971151921272 0  0.6000001635900636 0.2049971258713963 0  0.6000001462781824 0.1949971290398823 0  0.5925318389740908 0.189997117183812 0  0.5850635408830949 0.18999709760154 0  0.5775952322268495 0.1899970803792662 0  0.5701269312884055 0.1899970637172944 0  0.5626586235606852 0.1899970404872615 0  0.5551903129821392 0.1899970481677191 0  0.5477220116734439 0.1899970473000419 0  0.5402536976420548 0.1899970470752375 0  0.5327853962479779 0.1899970501899612 0  0.5253170805193028 0.1899970557713982 0  0.5178487772291659 0.1899970631298555 0  0.5103804621025716 0.1899970715272724 0  0.5029121602297235 0.1899970818230561 0  0.4954438436821774 0.189997096102861 0  0.4879755418039783 0.1899971143796345 0  0.4805072268474995 0.189997135301193 0  0.4730389241827646 0.1899971575334427 0  0.4655706103004816 0.1899971814430282 0  0.4581023097575525 0.1899972068396942 0  0.4506339983722604 0.1899972342285436 0  0.4431656980867587 0.1899972630962669 0  0.4356973871099692 0.1899972929649816 0  0.4282290854623775 0.1899973217154599 0  0.4207607767278367 0.1899973433634669 0  0.4132924700842136 0.1899973892042597 0  0.4058241700344423 0.1899974297416498 0  0.3983558627913961 0.1899974667387828 0  0.3908875616949961 0.1899975042560697 0  0.3834192540601022 0.1899975420433642 0  0.3759509523211242 0.1899975806055871 0  0.368482645009336 0.1899976203052491 0  0.3610143442265942 0.1899976582090803 0  0.3535460367743735 0.1899976928688831 0  0.3460777280165785 0.1899977540731833 0  0.3386094258112822 0.1899978127728756 0  0.3311411173359239 0.1899978723688661 0  0.3236728165619383 0.1899979360406492 0  0.3162045103912829 0.1899980053545281 0  0.3087362102817217 0.1899980793166175 0  0.3012679054267523 0.1899981585783371 0  0.2937996028607195 0.1899982567025239 0  0.2863312988196736 0.1899983655408323 0  0.2788629962752063 0.1899984892897267 0  0.2713946839955405 0.1899986409437056 0  0.2639263808320784 0.1899988386718351 0  0.2564580769682733 0.18
[...]
<PointData  Vectors="f_30-0"> 
<DataArray  type="Float64"  Name="f_30-0"  NumberOfComponents="3" format="ascii">0.0000000000000000e+00 0.0000000000000000e+00 0.0000000000000000e+00  0.0000000000000000e+00 0.0000000000000000e+00 0.0000000000000000e+00  0.0000000000000000e+00 0.0000000000000000e+00 0.0000000000000000e+00  0.0000000000000000e+00 0.0000000000000000e+00 0.0000000000000000e+00  2.8057599343163452e-02 -9.0645123364393107e-02 0.0000000000000000e+00  7.1280915005424744e-02 -8.2692796646750083e-02 0.0000000000000000e+00  0.0000000000000000e+00 0.0000000000000000e+00 0.0000000000000000e+00  0.0000000000000000e+00 0.0000000000000000e+00 0.0000000000000000e+00  0.0000000000000000e+00 0.0000000000000000e+00 0.0000000000000000e+00  0.0000000000000000e+00 0.0000000000000000e+00 0.0000000000000000e+00  1.2083227474401737e-01 -1.9640807135109353e-01 0.0000000000000000e+00  0.0000000000000000e+00 0.0000000000000000e+00 0.0000000000000000e+00  0.0000000000000000e+00 0.0000000000000000e+00 0.0000000000000000e+00  0.0000000000000000e+00 0.0000000000000000e+00 0.0000000000000000e+00  0.0000000000000000e+00 0.0000000000000000e+00 0.0000000000000000e+00  0.0000000000000000e+00 0.0000000000000000e+00 0.0000000000000000e+00  0.0000000000000000e+00 0.0000000000000000e+00 0.0000000000000000e+00  0.0000000000000000e+00 0.0000000000000000e+00 0.0000000000000000e+00  0.0000000000000000e+00 0.0000000000000000e+00 0.0000000000000000e+00  0.0000000000000000e+00 0.0000000000000000e+00 0.0000000000000000e+00  0.0000000000000000e+00 0.0000000000000000e+00 0.0000000000000000e+00  0.0000000000000000e+00 0.0000000000000000e+00 0.0000000000000000e+00  0.0000000000000000e+00 0.0000000000000000e+00 0.0000000000000000e+00  0.0000000000000000e+00 0.0000000000000000e+00 0.0000000000000000e+00  0.0000000000000000e+00 0.0000000000000000e+00 0.0000000000000000e+00  0.0000000000000000e+00 0.0000000000000000e+00 0.0000000000000000e+00  0.0000000000000000e+00 0.0000000000000000e+00 0.0000000000000000e+00  0.0000000000000000e+00 0.0000000000000000e+00 0.0000000000000000e+00  0.0000000000000000e+00 0.0000000000000000e+00 0.0000000000000000e+00  0.0000000000000000e+00 0.0000000000000000e+00 0.0000000000000000e+00  0.0000000000000000e+00 0.0000000000000000e+00 0.0000000000000000e+00  0.0000000000000000e+00 0.0000000000000000e+00 0.0000000000000000e+00  0.0000000000000000e+00 0.0000000000000000e+00 0.0000000000000000e+00  0.0000000000000000e+00 0.0000000000000000e+00 0.0000000000000000e+00  0.0000000000000000e+00 0.0000000000000000e+00 0.0000000000000000e+00  0.0000000000000000e+00 0.0000000000000000e+00 0.0000000000000000e+00  0.0000000000000000e+00 0.0000000000000000e+00 0.0000000000000000e+00  0.0000000000000000e+00 0.0000000000000000e+00 0.0000000000000000e+00  0.0000000000000000e+00 0.0000000000000000e+00 0.0000000000000000e+00  0.0000000000000000e+00 0.0000000000000000e+00 0.0000000000000000e+00  0.0000000000000000e+00 0.0000000000000000e+00 0.0000000000000000e+00  0.0000000000000000e+00 0.0000000000000000e+00 0.0000000000000000e+00  0.0000000000000000e+00 0.0000000000000000e+00 0.0000000000000000e+00  0.0000000000000000e+00 0.0000000000000000e+00 0.0000000000000000e+00  0.0000000000000000e+00 0.0000000000000000e+00 0.0000000000000000e+00  0.0000000000000000e+00 0.0000000000000000e+00 0.0000000000000000e+00  0.0000000000000000e+00 0.0000000000000000e+00 0.0000000000000000e+00  0.0000000000000000e+00 0.0000000000000000e+00 0.0000000000000000e+00  0.0000000000000000e+00 0.0000000000000000e+00 0.0000000000000000e+00  0.0000000000000000e+00 0.0000000000000000e+00 0.0000000000000000e+00  0.0000000000000000e+00 0.0000000000000000e+00 0.0000000000000000e+00  0.0000000000000000e+00 0.0000000000000000e+00 0.0000000000000000e+00  0.0000000000000000e+00 0.0000000000000000e+00 0.0000000000000000e+00  0.0000000000000000e+00 0.0000000000000000e+00 0.0000000000000000e+00  0.0000000000000000e+00 0.0000000000000000e+00 0.0000000000000000e+00  0.0000000000000000e+00 0.0000000000000000e+00 0.0000000000000000e+00  0.0000000000000000e+00 0.0000000000000000e+00 0.0000000000000000e+00  0.0000000000000000e+00 0.0000000000000000e+00 0.0000000000000000e+00  0.0000000000000000e+00 0.0000000000000000e+00 0.0000000000000000e+00  0.0000000000000000e+00 0.0000000000000000e+00 0.0000000000000000e+00  0.0000000000000000e+00 0.0000000000000000e+00 0.0000000000000000e+00  0.0000000000000000e+00 0.0000000000000000e+00 0.0000000000000000e+00  8.2034174083700683e-09 2.7394309628884403e-09 0.0000000000000000e+00  -2.0599616889563125e-10 3.8235495212906053e-09 0.0000000000000000e+00  -8.4279191709676365e-09 3.1972709966472905e-09 0.0000000000000000e+00  0.0000000000000000e+00 0.0000000000000000e+00 0.0000000000000000e+00  0.0000000000000000e+00 0.0000000000000000e+00 0.0000000000000000e+00  0.0000000000000000e+00 0.0000000000000000e+00 0.0000000000000000e+00  0.0000000000000000e+00 0.0000000000000000e+00 0.0000000000000000e+00  0.0000000000000000e+00 0.0000000000000000e+00 0.0000000000000000e+00  0.0000000000000000e+00 0.0000000000000000e+00 0.0000000000000000e+00  0.0000000000000000e+00 0.0000000000000000e+00 0.0000000000000000e+00  0.0000000000000000e+00 0.0000000000000000e+00 0.0000000000000000e+00  0.0000000000000000e+00 0.0000000000000000e+00 0.0000000000000000e+00  0.0000000000000000e+00 0.0000000000000000e+00 0.0000000000000000e+00  0.0000000000000000e+00 0.0000000000000000e+00 0.0000000000000000e+00  0.0000000000000000e+00 0.0000000000000000e+00 0.0000000000000000e+00  0.0000000000000000e+00 0.0000000000000000e+00 0.0000000000000000e+00  0.0000000000000000e+00 0.0000000000000000e+00 0.0000000000000000e+00  0.0000000000000000e+00 0.0000000000000000e+00 0.0000000000000000e+00  0.0000000000000000e+00 0.0000000000000000e+00 0.0000000000000000e+00  0.0000000000000000e+00 0.0000000000000000e+00 0.0000000000000000e+00  0.0000000000000000e+00 0.0000000000000000e+00 0.0000000000000000e+00  0.0000000000000000e+00 0.0000000000000000e+00 0.0000000000000000e+00  0.0000000000000000e+00 0.0000000000000000e+00 0.0000000000000000e+00  0.0000000000000000e+00 0.0000000000000000e+00 0.0000000000000000e+00  0.0000000000000000e+00 0.0000000000000000e+00 0.0000000000000000e+00  0.0000000000000000e+00 0.0000000000000000e+00 0.0000000000000000e+00  0.0000000000000000e+00 0.0000000000000000e+00 0.0000000000000000e+00  0.0000000000000000e+00 0.0000000000000000e+00 0.0000000000000000e+00  0.0000000000000000e+00 0.0000000000000000e+00 0.0000000000000000e+00  0.0000000000000000e+00 0.0000000000000000e+00 0.0000000000000000e+00  0.0000000000000000e+00 0.0000000000000000e+00 0.0000000000000000e+00  0.0000000000000000e+00 0.0000000000000000e+00 0.0000000000000000e+00  0.0000000000000000e+00 0.0000000000000000e+00 0.0000000000000000e+00  0.0000000000000000e+00 0.0000000000000000e+00 0.0000000000000000e+00  0.0000000000000000e+00 0.0000000000000000e+00 0.0000000000000000e+00  0.0000000000000000e+00 0.0000000000000000e+00 0.0000000000000000e+00  0.0000000000000000e+00 0.0000000000000000e+00 0.0000000000000000e+00  0.0000000000000000e+00 0.0000000000000000e+00 0.0000000000000000e+00  0.0000000000000000e+00 0.0000000000000000e+00 0.0000000000000000e+00  0.0000000000000000e+00 0.0000000000000000e+00 0.0000000000000000e+00  0.0000000000000000e+00 0.0000000000000000e+00 0.0000000000000000e+00  0.0000000000000000e+00 0.0000000000000000e+00 0.0000000000000000e+00  0.0000000000000000e+00 0.0000000000000000e+00 0.0000000000000000e+00  0.0000000000000000e+00 0.0000000000000000e+00 0.0000000000000000e+00  0.0000000000000000e+00 0.0000000000000000e+00 0.0000000000000000e+00  0.0000000000000000e+00 0.0000000000000000e+00 0.0000000000000000e+00  0.0000000000000000e+00 0.0000000000000000e+00 0.0000000000000000e+00  0.0000000000000000e+00 0.0000000000000000e+00 0.0000000000000000e+00  0.0000000000000000e+00 0.0000000000000000e+00 0.0000000000000000e+00  0.0000000000000000e+00 0.0000000000000000e+00 0.0000000000000000e+00  0.0000000000000000e+00 0.0000000000000000e+00 0.0000000000000000e+00  0.0000000000000000e+00 0.0000000000000000e+00 0.0000000000000000e+00  0.0000000000000000e+00 0.0000000000000000e+00 0.0000000000000000e+00  0.0000000000000000e+00 0.0000000000000000e+00 0.0000000000000000e+00  0.0000000000000000e+00 0.0000000000000000e+00 0.0000000000000000e+00  0.0000000000000000e+00 0.0000000000000000e+00 0.0000000000000000e+00  0.0000000000000000e+00 0.0000000000000000e+00 0.0000000000000000e+00  0.0000000000000000e+00 0.0000000000000000e+00 0.0000000000000000e+00  0.0000000000000000e+00 0.0000000000000000e+00 0.0000000000000000e+00  0.0000000000000000e+00 0.0000000000000000e+00 0.0000000000000000e+00  0.0000000000000000e+00 0.0000000000000000e+00 0.0000000000000000e+00  0.0000000000000000e+00 0.0000000000000000e+00 0.0000000000000000e+00  0.0000000000000000e+00 0.0000000000000000e+00 0.0000000000000000e+00  0.0000000000000000e+00 0.0000000000000000e+00 0.0000000000000000e+00  0.0000000000000000e+00 0.0000000000000000e+00 0.0000000000000000e+00  0.0000000000000000e+00 0.0000000000000000e+00 0.0000000000000000e+00  0.0000000000000000e+00 0.0000000000000000e+00 0.0000000000000000e+00  0.0000000000000000e+00 0.0000000000000000e+00 0.0000000000000000e+00  0.0000000000000000e+00 0.0000000000000000e+00 0.0000000000000000e+00  0.0000000000000000e+00 0.0000000000000000e+00 0.0000000000000000e+00  0.0000000000000000e+00 0.0000000000000000e+00 0.0000000000000000e+00  0.0000000000000000e+00 0.0000000000000000e+00 0.0000000000000000e+00  0.0000000000000000e+00 0.0000000000000000e+00 0.0000000000000000e+00  0.0000000000000000e+00 0.0000000000000000e+00 0.0000000000000000e+00  0.0000000000000000e+00 0.0000000000000000e+00 0.0000000000000000e+00  0.0000000000000000e+00 0.0000000000000000e+00 0.0000000000000000e+00  0.0000000000000000e+00 0.0000000000000000e+00 0.0000000000000000e+00  0.0000000000000000e+00 0.0000000000000000e+00 0.0000000000000000e+00  0.0000000000000000e+00 0.0000000000000000e+00 0.0000000000000000e+00  0.0000000000000000e+00 0.0000000000000000e+00 0.0000000000000000e+00  0.0000000000000000e+00 0.0000000000000000e+00 0.0000000000000000e+00  1.1777635845193943e-01 4.8983204105033074e-01 0.0000000000000000e+00  9.3230145439826842e-02 4.2711620275905099e-01 0.0000000000000000e+00  1.4559385255528137e-01 3.1209378404615334e-01 0.0000000000000000e+00  6.4054200377815493e-02 1.6041723797718721e-01 0.0000000000000000e+00  7.0980214458577578e-02 7.3449883448675340e-02 0.0000000000000000e+00  3.3811599731449073e-02 -3.5415391217903998e-02 0.0000000000000000e+00  4.7510453025208239e-02 -1.0085610645948097e-01 0.0000000000000000e+00  -8.7828576688757046e-03 -1.6098980543152203e-01 0.0000000000000000e+00  3.9659710669755321e-02 -1.9667439939936746e-01 0.0000000000000000e+00  -1.5401757406754596e-02 -2.1993488201636383e-01 0.0000000000000000e+00  4.2992571198666271e-02 -2.6004170407955518e-01 0.0000000000000000e+00  -1.3822627781758322e-02 -2.6230586985531179e-01 0.0000000000000000e+00  6.0398909445408058e-02 -3.0251138140006584e-01 0.0000000000000000e+00  1.2865500855772887e-02 -3.1631893538477629e-01 0.0000000000000000e+00  5.5460989580472624e-03 -2.9175021325413197e-01 0.0000000000000000e+00  3.4156653652938310e-02 -2.5534095249720412e-01 0.0000000000000000e+00  -2.2939092694397316e-03 -2.8020673940502677e-01 0.0000000000000000e+00  2.9830138737901319e-02 -2.6242212974435625e-01 0.0000000000000000e+00  -1.5901581288711060e-02 -2.6972484687077541e-01 0.0000000000000000e+00  3.0531685738359713e-02 -2.8115731963641666e-01 0.0000000000000000e+00  -3.8077554216402437e-02 -2.7853334721210921e-01 0.0000000000000000e+00  3.9321269045628986e-02 -3.0157865593774325e-01 0.0000000000000000e+00  -3.4721984723636690e-02 -3.1963807475724321e-01 0.0000000000000000e+00  -5.5608080230066109e-02 -3.1603856992343243e-01 0.0000000000000000e+00  -2.1943896545115724e-02 -3.6727472560783903e-01 0.0000000000000000e+00  -5.5989686414684194e-02 -3.5779718385259768e-01 0.0000000000000000e+00  -2.7047468590894887e-02 -4.1128635887466319e-01 0.0000000000000000e+00  -7.9266229432110188e-02 -4.2522236496778953e-01 0.0000000000000000e+00  1.9879955687624297e-03 -4.3987312718541366e-01 0.0000000000000000e+00  -9.4010289500259581e-02 -4.4767167747616410e-01 0.0000000000000000e+00  7.2004914315992137e-03 -4.7630654357091518e-01 0.0000000000000000e+00  -8.3838760855311473e-02 -4.4079438866964243e-01 0.0000000000000000e+00  2.1704800873748181e-02 -5.8385634786904461e-01 0.0000000000000000e+00  -4.9274777785434619e-02 -5.8008820302149444e-01 0.0000000000000000e+00  5.4170747610832196e-02 -4.5366792170759590e-01 0.0000000000000000e+00  -3.7213465960837896e-02 -4.3118090262682834e-01 0.0000000000000000e+00  6.0753048937826661e-02 -4.3119325815386339e-01 0.0000000000000000e+00  -3.8976442523487385e-02 -4.9715700234453558e-01 0.0000000000000000e+00  9.0714637409669993e-02 -4.9588693814387563e-01 0.0000000000000000e+00  3.6964045066942169e-03 -4.4780203799120127e-01 0.0000000000000000e+00  1.0974358341496566e-01 -3.9134156969611478e-01 0.0000000000000000e+00  6.4241857092844384e-02 -3.8838367913143301e-01 0.0000000000000000e+00  2.6693311376096856e-02 -3.3349147294365261e-01 0.0000000000000000e+00  1.1509678473568762e-01 -2.3947796334418192e-01 0.0000000000000000e+00  7.3940431031883525e-02 -3.4653855210901779e-01 0.0000000000000000e+00  1.9535855269375718e-01 -3.2504933272170961e-01 0.0000000000000000e+00  1.8804005281727509e-01 -2.2961591911492973e-01 0.0000000000000000e+00  1.1367344182897676e-02 -1.5579421125990511e-01 0.0000000000000000e+00  3.3003112020550084e-02 -1.7965124024007620e-01 0.0000000000000000e+00  1.0880138288758637e-01 -2.4903131045018603e-01 0.0000000000000000e+00  2.7772062414283948e-02 -2.8202226003460612e-01 0.0000000000000000e+00  9.5546189339745485e-02 -3.4387813780366666e-01 0.0000000000000000e+00  4.7796058975757297e-02 -3.4001994274275271e-01 0.0000000000000000e+00  -9.7360510591622904e-03 -3.8274680020395280e-01 0.0000000000000000e+00  9.8871423135491091e-02 -3.9020562922492719e-01 0.0000000000000000e+00  -2.5886930219945009e-02 -4.1229116019002487e-01 0.0000000000000000e+00  8.0984959669445758e-02 -4.2509577966308482e-01 0.0000000000000000e+00  -4.2519865896124664e-02 -4.2692098152542651e-01 0.0000000000000000e+00  7.1848953213525607e-02 -4.2869804884605756e-01 0.0000000000000000e+00  -4.0412649123796378e-02 -4.3846638415771205e-01 0.0000000000000000e+00  7.1089253456635068e-02 -4.5277649176910290e-01 0.0000000000000000e+00  -7.0256915033650336e-02 -4.5258960446167074e-01 0.0000000000000000e+00  3.9245221469264964e-02 -4.3812215265907856e-01 0.0000000000000000e+00  -7.5286491019108448e-02 -4.2381945814066763e-01 0.0000000000000000e+00  3.2682478351598092e-02 -4.0894292977002433e-01 0.0000000000000000e+00  -7.7636704864807241e-02 -3.9434774080006602e-01 0.0000000000000000e+00  2.3864148359081287e-02 -3.7337179758713301e-01 0.0000000000000000e+00  -7.3974565839015280e-02 -3.5893921591392897e-01 0.0000000000000000e+00  2.0463211768123126e-02 -3.4490484884174688e-01 0.0000000000000000e+00  -6.7404378187891634e-02 -3.2732606507646428e-01 0.0000000000000000e+00  1.9490548358869764e-02 -3.2367734473306020e-01 0.0000000000000000e+00  -2.8376129316600766e-02 -3.0532922727912143e-01 0.0000000000000000e+00  -5.4744625391002340e-02 -3.0577286080989036e-01 0.0000000000000000e+00  3.2291563087000723e-04 -2.7571209921664286e-01 0.0000000000000000e+00  -4.5032665499740825e-02 -2.8338930582271965e-01 0.0000000000000000e+00  7.7434718284975839e-03 -2.8358873726582406e-01 0.0000000000000000e+00  -4.0712305260816095e-02 -2.8431827293337847e-01 0.0000000000000000e+00  6.8401842524895744e-03 -2.8268912719325079e-01 0.0000000000000000e+00  -3.6231704080297251e-02 -2.7583763649049836e-01 0.0000000000000000e+00  1.2741877581401268e-02 -2.8926064473278007e-01 0.0000000000000000e+00  -8.3532563642507319e-03 -2.8904782945743662e-01 0.0000000000000000e+00  -7.1724415730863814e-02 -2.9945737502099434e-01 0.0000000000000000e+00  3.3689277222184386e-04 -2.6658603132051423e-01 0.0000000000000000e+00  -7.7504192294112900e-02 -2.5659967817036500e-01 0.0000000000000000e+00  -1.1010943023324799e-02 -2.2773400320314827e-01 0.0000000000000000e+00  -7.3145598343436896e-02 -1.9871174053256543e-01 0.0000000000000000e+00  -1.5181868760818746e-02 -1.6086671053441134e-01 0.0000000000000000e+00  -5.6140465319846969e-02 -1.0981279840961579e-01 0.0000000000000000e+00  -3.2061901806760114e-02 -4.1912648309168507e-02 0.0000000000000000e+00  -4.5091799706031700e-02 6.0014476807685076e-02 0.0000000000000000e+00  -7.6342435265695733e-03 1.2425593291706750e-01 0.0000000000000000e+00  -1.0368895494066924e-01 3.0981806633592562e-01 0.0000000000000000e+00  -1.5568187433212358e-01 5.3824000058495858e-01 0.0000000000000000e+00  -1.8132467176947009e-01 5.0412526888751585e-01 0.0000000000000000e+00  -1.0369501309476392e-02 -2.8037258265361742e-01 0.0000000000000000e+00  -1.3413874346158899e-02 1.7731762947995880e-01 0.0000000000000000e+00  4.4773969593995830e-03 2.3532591726689914e-01 0.0000000000000000e+00  1.0923572124116246e-02 3.2517904045367246e-01 0.0000000000000000e+00  -3.0611629859018843e-02 -1.8818491255748940e-01 0.0000000000000000e+00  1.0590987817523111e-02 3.5718935512888988e-01 0.0000000000000000e+00  8.2089324824855155e-03 -3.0621521788898157e-02 0.0000000000000000e+00  1.0344934446833190e-02 3.4952561020696959e-01 0.0000000000000000e+00  4.8813087154126926e-03 1.4339189200793034e-01 0.0000000000000000e+00  -2.9647029062537117e-04 1.9077250262234974e-01 0.0000000000000000e+00  -2.6681678004224652e-02 3.7798715698090607e-01 0.0000000000000000e+00  5.4681715543566734e-03 2.2480201328916286e-01 0.0000000000000000e+00  -1.0403549939827240e-02 3.4464875171750620e-01 0.0000000000000000e+00  -3.8997998699735093e-03 2.1006618127381374e-01 0.0000000000000000e+00  4.2975222872576379e-04 2.2084406733111261e-01 0.0000000000000000e+00  -8.6116143332232286e-03 3.2323414570468922e-01 0.0000000000000000e+00  1.9220449484392450e-02 3.7575601925318863e-01 0.0000000000000000e+00  -5.9334741501007836e-03 2.2380346333766674e-01 0.0000000000000000e+00  -3.5295840749978548e-03 2.9322615411602015e-01 0.0000000000000000e+00  -1.3727230927837776e-03 2.2758227534156275e-01 0.0000000000000000e+00  -1.0406362313205037e-02 2.6313033539178771e-01 0.0000000000000000e+00  5.6679195191681629e-03 2.0280584530975240e-01 0.0000000000000000e+00  -1.3348194117439162e-03 1.8923950494242445e-01 0.0000000000000000e+00  -7.6341169004394581e-03 2.4786206625264479e-01 0.0000000000000000e+00  5.5520863972090629e-03 7.1386013512691401e-02 0.0000000000000000e+00  5.1302119662470424e-03 1.7169768019296322e-01 0.0000000000000000e+00  -6.2966616922335336e-02 -2.4871842671494188e-01 0.0000000000000000e+00  -2.3065134670463227e-03 2.4238863547077030e-01 0.0000000000000000e+00  -1.2949777808604864e-02 2.5121886687595518e-01 0.0000000000000000e+00  3.1975810020500053e-02 -6.3106385301697071e-02 0.0000000000000000e+00  1.1206489476256461e-02 1.2296536311357441e-01 0.0000000000000000e+00  -1.0816251716005939e-03 2.4524018617840959e-01 0.0000000000000000e+00  -1.1152489490565745e-03 2.4234254227041352e-01 0.0000000000000000e+00  -1.1035115624807704e-02 1.5819370048066062e-01 0.0000000000000000e+00  2.7627362262264816e-03 2.2727225218207078e-01 0.0000000000000000e+00  1.1282829629401867e-02 1.4104622741880135e-01 0.0000000000000000e+00  -1.5345329769814327e-03 1.5883302949097677e-01 0.0000000000000000e+00  -4.6017528451837489e-05 2.2064714265135141e-01 0.0000000000000000e+00  -1.4626646666287201e-03 2.9054652477393828e-01 0.0000000000000000e+00  9.1539775491376336e-03 1.7801141390291358e-01 0.0000000000000000e+00  4.2680534273375125e-03 1.8665033412486357e-01 0.0000000000000000e+00  -4.5942983894746249e-02 -2.7491410606544092e-01 0.0000000000000000e+00  8.7581855369179645e-02 -2.4928165051282419e-01 0.0000000000000000e+00  -1.0897986503887785e-01 1.3612970880092123e-01 0.0000000000000000e+00  2.2557482450143485e-02 -2.4907777044414045e-01 0.0000