<?xml version="1.0"?>
<VTKFile type="UnstructuredGrid"  version="0.1"  >
<UnstructuredGrid>
<Piece  NumberOfPoints="1419" NumberOfCells="2698">
<Points>
<DataArray  type="Float64"  NumberOfComponents="3"  format="ascii">5.281139501996817e-08 -1.978228397634458e-06 0  7.59861857993901e-08 0.4099980130111192 0  2.500000150014243 -2.951087362848379e-06 0  2.500000150014268 0.4099970489126618 0  0.6000001668664944 0.1899969555919815 0  0.6000001896200524 0.2099969551789253 0  0.25 0.2 0  0.1500000633368302 0.1999980361512582 0  0.2489897948556636 0.21 0  0.2489897948556636 0.19 0  0.6000001838761264 0.1999969444779985 0  7.57103838184617e-08 0.38071229932851 0  7.492685004114462e-08 0.3514265866830008 0  7.361869335951697e-08 0.322140874829962 0  7.180027795684285e-08 0.2928551632420934 0  6.957059344460983e-08 0.2635694515145203 0  6.701971708488327e-08 0.2342837393764056 0  6.425853836259879e-08 0.2049980264213064 0  6.150715168020763e-08 0.1757123127197579 0  5.896469531898643e-08 0.1464265981967323 0  5.675317385394256e-08 0.1171408830064338 0  5.504025569516875e-08 0.08785516739798704 0  5.378559338262066e-08 0.05856945173427311 0  5.304610233958647e-08 0.02928373641672232 0  0.03015449016682771 -1.978633000828181e-06 0  0.06140007162484719 -1.980098475060603e-06 0  0.09377629114320159 -1.983420101217553e-06 0  0.1273240442054855 -1.989987167212527e-06 0  0.1620857322149269 -2.002298068418055e-06 0  0.1981052873092731 -2.026497608508431e-06 0  0.2354282267998115 -2.071830333870433e-06 0  0.2741017009215507 -2.144413528899645e-06 0  0.3141745985408609 -2.245328489140944e-06 0  0.3556975457598716 -2.371031996319765e-06 0  0.3987230174400878 -2.506522867707801e-06 0  0.443305381903988 -2.63572717745891e-06 0  0.4895009676177459 -2.747774664662443e-06 0  0.5373681682082091 -2.833276386828646e-06 0  0.5869674553686551 -2.889808650784325e-06 0  0.6383614995086345 -2.923856157976962e-06 0  0.6916152528885208 -2.940467642216865e-06 0  0.746796003020869 -2.947701963783802e-06 0  0.8039734925377919 -2.95060973182334e-06 0  0.8632199616801768 -2.951548682195785e-06 0  0.9246102813580199 -2.951688377850801e-06 0  0.9882220302996627 -2.951568875965344e-06 0  1.054135595102383 -2.951424997048171e-06 0  1.122434250277021 -2.951305377562356e-06 0  1.193204326996081 -2.951218660078022e-06 0  1.266535239804718 -2.951163313870234e-06 0  1.342519666010617 -2.951130725947966e-06 0  1.421253598490703 -2.951111417311781e-06 0  1.502836539106069 -2.951100083907631e-06 0  1.587371589765594 -2.951093978270216e-06 0  1.674965568787793 -2.951090745906665e-06 0  1.765729151837909 -2.951089025306573e-06 0  1.859777058893402 -2.951088179362139e-06 0  1.957228127500882 -2.951087735761179e-06 0  2.058205479883992 -2.951087533806016e-06 0  2.162836741204117 -2.951087430736734e-06 0  2.271254107305078 -2.951087387061369e-06 0  2.38359459681766 -2.951087368369748e-06 0  2.500000150014244 0.1024970489124019 0  2.500000150014255 0.2049970489121236 0  2.500000150014265 0.3074970489123764 0  2.383594596817931 0.4099970489126671 0  2.271254107305611 0.4099970489126865 0  2.162836741204947 0.4099970489127321 0  2.058205479885235 0.4099970489128304 0  1.957228127502751 0.4099970489130303 0  1.859777058896455 0.4099970489134956 0  1.765729151843012 0.409997048914339 0  1.674965568796992 0.409997048916131 0  1.587371589782223 0.4099970489193732 0  1.502836539136667 0.4099970489255497 0  1.421253598547653 0.4099970489374906 0  1.342519666112324 0.4099970489577815 0  1.266535239983309 0.4099970489932752 0  1.193204327312431 0.4099970490601486 0  1.122434250825893 0.4099970491801545 0  1.054135596011475 0.4099970493809779 0  0.9882220318191524 0.4099970497791927 0  0.9246102838098944 0.4099970505113494 0  0.863219965609512 0.4099970519154499 0  0.8039734986893059 0.4099970547293904 0  0.7467960124395957 0.4099970603880119 0  0.6916152667838538 0.4099970714535086 0  0.6383615192261273 0.4099970931290734 0  0.58696748226286 0.4099971307222597 0  0.5373682027436024 0.4099971894966079 0  0.4895010097322362 0.4099972743279715 0  0.4433054310341159 0.4099973812466755 0  0.3987230720359278 0.4099975027627469 0  0.3556976033812023 0.4099976284939586 0  0.3141746564096482 0.4099977453974042 0  0.2741017558759337 0.40999784191207 0  0.235428276915261 0.4099979109187397 0  0.1981053314129138 0.4099979561118821 0  0.1620857701887435 0.4099979825575393 0  0.1273240767859433 0.40999799727831 0  0.09377631947229896 0.4099980057511952 0  0.06140009701375826 0.4099980101531829 0  0.0301545138407012 0.4099980124399804 0  0.2497468076502589 0.2050254481002335 0  0.2497468076502614 0.1949745518997913 0  0.2469965247200595 0.1829307536063981 0  0.2439893795711052 0.176230342671865 0  0.2400332271285535 0.170042839872119 0  0.2352134151652574 0.1645016607937376 0  0.2296339244304227 0.1597263085970679 0  0.2234151245296228 0.1558197917854292 0  0.2166911772655453 0.1528663785608519 0  0.2096071422035987 0.150929778880465 0  0.2023158474796829 0.150051765902235 0  0.194974592183047 0.1502512805988257 0  0.1877417535213729 0.1515240153562324 0  0.1807733695322088 0.1538425118488446 0  0.1742197732074961 0.1571567501465317 0  0.1682223488963287 0.1613952298475839 0  0.1629104825230515 0.1664665109121379 0  0.158398769898375 0.1722611875373061 0  0.154784544836619 0.1786542474752313 0  0.1521457789971034 0.1855077695683797 0  0.150539400077619 0.1926738987556793 0  0.1505394042899286 0.2073221740202352 0  0.1521457874628799 0.2144883046904417 0  0.1547845574656466 0.2213418293536292 0  0.1583987867576418 0.2277348932700784 0  0.1629105035463702 0.2335295755396373 0  0.1682223741648679 0.2386008647452075 0  0.1742198026333536 0.2428393553929337 0  0.1807734031920278 0.2461536088708549 0  0.1877417913940105 0.2484721262163921 0  0.1949746342978532 0.2497448896868031 0  0.202315893787872 0.2499444423006611 0  0.209607192800365 0.249066482173203 0  0.2166912319973604 0.2471299519430219 0  0.2234151833627837 0.2441766355211961 0  0.229633987188291 0.2402702496550174 0  0.2352134813080427 0.2354950819310155 0  0.2400332956048995 0.22995415982102 0  0.2439894473947944 0.2237670599712986 0  0.2469965834028152 0.2170673343733154 0  0.2564581657836924 0.209999073029108 0  0.2639264869556378 0.2099987616802554 0  0.2713948071966215 0.2099985599243849 0  0.2788631103819784 0.2099984026273916 0  0.2863314162794127 0.2099982703506299 0  0.293799717688551 0.2099981546232598 0  0.3012680202938296 0.209998050526413 0  0.3087363214225232 0.2099979645780944 0  0.3162046278505879 0.2099978839456129 0  0.3236729283007798 0.2099978096218691 0  0.3311412365195137 0.2099977412380669 0  0.3386095364543892 0.2099976782232835 0  0.3460778442315576 0.2099976169115586 0  0.3535461451587565 0.209997550841835 0  0.361014445528459 0.2099975157008778 0  0.3684827511339398 0.2099974753328109 0  0.3759510479822413 0.2099974327241519 0  0.3834193523884793 0.2099973927911497 0  0.3908876481734481 0.2099973536421351 0  0.3983559522701933 0.2099973161695775 0  0.4058242469101629 0.2099972789340648 0  0.4132925502193224 0.2099972388034651 0  0.4207608442934941 0.2099971896955818 0  0.4282291428677365 0.2099971706016293 0  0.4356974478759217 0.2099971425489182 0  0.4431657463408872 0.2099971140837446 0  0.4506340539171891 0.2099970835534506 0  0.4581023538349155 0.2099970564290961 0  0.4655706645049371 0.2099970303059268 0  0.473038965584564 0.2099970061077263 0  0.4805072786427071 0.2099969834327079 0  0.487975582368168 0.2099969639425892 0  0.4954439003812053 0.2099969384096169 0  0.5029122063380199 0.2099969235849478 0  0.5103805242839653 0.2099969188289637 0  0.5178488288292991 0.2099969104164154 0  0.5253171454851798 0.2099969012971188 0  0.5327854499866259 0.209996891123568 0  0.5402537673084296 0.2099968855159975 0  0.547722072827638 0.2099968838917196 0  0.5551903891079282 0.2099968815831154 0  0.5626586953928177 0.2099968689802983 0  0.5701269940172657 0.2099968956940412 0  0.5775953021529163 0.2099969135307654 0  0.5850636000284669 0.2099969201580192 0  0.5925319007444918 0.2099969350020368 0  0.6000001913179217 0.2049969467036239 0  0.6000001724626549 0.1949969503966761 0  0.5925318646934729 0.1899969381670668 0  0.5850635668872961 0.1899969174036351 0  0.5775952577818096 0.189996898982214 0  0.5701269566875569 0.189996881172548 0  0.5626586485894318 0.1899968564486247 0  0.5551903373525729 0.1899968638784453 0  0.5477220357953234 0.189996862177574 0  0.5402537205840475 0.1899968612316687 0  0.5327854187962505 0.1899968639843713 0  0.5253171017373734 0.189996869304513 0  0.5178487979799856 0.1899968763370936 0  0.5103804815038629 0.1899968842105794 0  0.5029121788983036 0.189996894181448 0  0.4954438598815596 0.1899969089603913 0  0.4879755572148409 0.1899969286294773 0  0.4805072405813791 0.1899969513263789 0  0.4730389373747089 0.1899969753929548 0  0.46557062189949 0.1899970012849861 0  0.4581023210716723 0.1899970289040411 0  0.4506340085306647 0.1899970588556967 0  0.4431657080972903 0.1899970905020744 0  0.4356973961978373 0.1899971232945944 0  0.4282290944469917 0.189997154882818 0  0.4207607851664852 0.1899971788322515 0  0.4132924782418223 0.1899972284678048 0  0.4058241782725068 0.1899972724851953 0  0.3983558707234844 0.1899973127183216 0  0.3908875696466677 0.1899973534333192 0  0.3834192616992775 0.1899973943769075 0  0.3759509599239043 0.1899974361008859 0  0.3684826523371649 0.1899974789945084 0  0.3610143515439064 0.1899975200547885 0  0.3535460437933425 0.1899975577790554 0  0.3460777347542587 0.189997623086146 0  0.3386094324354865 0.1899976858707192 0  0.3311411237288721 0.1899977496844798 0  0.3236728229385643 0.1899978177724177 0  0.3162045167729937 0.1899978918089044 0  0.3087362167250836 0.189997970858459 0  0.3012679120548631 0.1899980557923984 0  0.2937996096454211 0.1899981593440589 0  0.2863313051584916 0.1899982743077943 0  0.2788630024591578 0.1899984049483577 0  0.2713946883838901 0.1899985655198705 0  0.2639263840217441 0.1899987748242459 0  0.2564580786484521 0.1899990793281787 
[...]
<PointData  Vectors="f_30-0"> 
<DataArray  type="Float64"  Name="f_30-0"  NumberOfComponents="3" format="ascii">0.0000000000000000e+00 0.0000000000000000e+00 0.0000000000000000e+00  0.0000000000000000e+00 0.0000000000000000e+00 0.0000000000000000e+00  0.0000000000000000e+00 0.0000000000000000e+00 0.0000000000000000e+00  0.0000000000000000e+00 0.0000000000000000e+00 0.0000000000000000e+00  3.2494308070331927e-02 -9.6357516058182865e-02 0.0000000000000000e+00  8.0790443972930823e-02 -8.8106042798288473e-02 0.0000000000000000e+00  0.0000000000000000e+00 0.0000000000000000e+00 0.0000000000000000e+00  0.0000000000000000e+00 0.0000000000000000e+00 0.0000000000000000e+00  0.0000000000000000e+00 0.0000000000000000e+00 0.0000000000000000e+00  0.0000000000000000e+00 0.0000000000000000e+00 0.0000000000000000e+00  1.3500790158819026e-01 -2.0695575892442222e-01 0.0000000000000000e+00  0.0000000000000000e+00 0.0000000000000000e+00 0.0000000000000000e+00  0.0000000000000000e+00 0.0000000000000000e+00 0.0000000000000000e+00  0.0000000000000000e+00 0.0000000000000000e+00 0.0000000000000000e+00  0.0000000000000000e+00 0.0000000000000000e+00 0.0000000000000000e+00  0.0000000000000000e+00 0.0000000000000000e+00 0.0000000000000000e+00  0.0000000000000000e+00 0.0000000000000000e+00 0.0000000000000000e+00  0.0000000000000000e+00 0.0000000000000000e+00 0.0000000000000000e+00  0.0000000000000000e+00 0.0000000000000000e+00 0.0000000000000000e+00  0.0000000000000000e+00 0.0000000000000000e+00 0.0000000000000000e+00  0.0000000000000000e+00 0.0000000000000000e+00 0.0000000000000000e+00  0.0000000000000000e+00 0.0000000000000000e+00 0.0000000000000000e+00  0.0000000000000000e+00 0.0000000000000000e+00 0.0000000000000000e+00  0.0000000000000000e+00 0.0000000000000000e+00 0.0000000000000000e+00  0.0000000000000000e+00 0.0000000000000000e+00 0.0000000000000000e+00  0.0000000000000000e+00 0.0000000000000000e+00 0.0000000000000000e+00  0.0000000000000000e+00 0.0000000000000000e+00 0.0000000000000000e+00  0.0000000000000000e+00 0.0000000000000000e+00 0.0000000000000000e+00  0.0000000000000000e+00 0.0000000000000000e+00 0.0000000000000000e+00  0.0000000000000000e+00 0.0000000000000000e+00 0.0000000000000000e+00  0.0000000000000000e+00 0.0000000000000000e+00 0.0000000000000000e+00  0.0000000000000000e+00 0.0000000000000000e+00 0.0000000000000000e+00  0.0000000000000000e+00 0.0000000000000000e+00 0.0000000000000000e+00  0.0000000000000000e+00 0.0000000000000000e+00 0.0000000000000000e+00  0.0000000000000000e+00 0.0000000000000000e+00 0.0000000000000000e+00  0.0000000000000000e+00 0.0000000000000000e+00 0.0000000000000000e+00  0.0000000000000000e+00 0.0000000000000000e+00 0.0000000000000000e+00  0.0000000000000000e+00 0.0000000000000000e+00 0.0000000000000000e+00  0.0000000000000000e+00 0.0000000000000000e+00 0.0000000000000000e+00  0.0000000000000000e+00 0.0000000000000000e+00 0.0000000000000000e+00  0.0000000000000000e+00 0.0000000000000000e+00 0.0000000000000000e+00  0.0000000000000000e+00 0.0000000000000000e+00 0.0000000000000000e+00  0.0000000000000000e+00 0.0000000000000000e+00 0.0000000000000000e+00  0.0000000000000000e+00 0.0000000000000000e+00 0.0000000000000000e+00  0.0000000000000000e+00 0.0000000000000000e+00 0.0000000000000000e+00  0.0000000000000000e+00 0.0000000000000000e+00 0.0000000000000000e+00  0.0000000000000000e+00 0.0000000000000000e+00 0.0000000000000000e+00  0.0000000000000000e+00 0.0000000000000000e+00 0.0000000000000000e+00  0.0000000000000000e+00 0.0000000000000000e+00 0.0000000000000000e+00  0.0000000000000000e+00 0.0000000000000000e+00 0.0000000000000000e+00  0.0000000000000000e+00 0.0000000000000000e+00 0.0000000000000000e+00  0.0000000000000000e+00 0.0000000000000000e+00 0.0000000000000000e+00  0.0000000000000000e+00 0.0000000000000000e+00 0.0000000000000000e+00  0.0000000000000000e+00 0.0000000000000000e+00 0.0000000000000000e+00  0.0000000000000000e+00 0.0000000000000000e+00 0.0000000000000000e+00  0.0000000000000000e+00 0.0000000000000000e+00 0.0000000000000000e+00  0.0000000000000000e+00 0.0000000000000000e+00 0.0000000000000000e+00  0.0000000000000000e+00 0.0000000000000000e+00 0.0000000000000000e+00  0.0000000000000000e+00 0.0000000000000000e+00 0.0000000000000000e+00  0.0000000000000000e+00 0.0000000000000000e+00 0.0000000000000000e+00  0.0000000000000000e+00 0.0000000000000000e+00 0.0000000000000000e+00  0.0000000000000000e+00 0.0000000000000000e+00 0.0000000000000000e+00  8.5593036854745760e-09 2.8867039453816244e-09 0.0000000000000000e+00  -2.0484822609066281e-10 4.0627108260923455e-09 0.0000000000000000e+00  -8.7892225305780697e-09 3.3467013586357636e-09 0.0000000000000000e+00  0.0000000000000000e+00 0.0000000000000000e+00 0.0000000000000000e+00  0.0000000000000000e+00 0.0000000000000000e+00 0.0000000000000000e+00  0.0000000000000000e+00 0.0000000000000000e+00 0.0000000000000000e+00  0.0000000000000000e+00 0.0000000000000000e+00 0.0000000000000000e+00  0.0000000000000000e+00 0.0000000000000000e+00 0.0000000000000000e+00  0.0000000000000000e+00 0.0000000000000000e+00 0.0000000000000000e+00  0.0000000000000000e+00 0.0000000000000000e+00 0.0000000000000000e+00  0.0000000000000000e+00 0.0000000000000000e+00 0.0000000000000000e+00  0.0000000000000000e+00 0.0000000000000000e+00 0.0000000000000000e+00  0.0000000000000000e+00 0.0000000000000000e+00 0.0000000000000000e+00  0.0000000000000000e+00 0.0000000000000000e+00 0.0000000000000000e+00  0.0000000000000000e+00 0.0000000000000000e+00 0.0000000000000000e+00  0.0000000000000000e+00 0.0000000000000000e+00 0.0000000000000000e+00  0.0000000000000000e+00 0.0000000000000000e+00 0.0000000000000000e+00  0.0000000000000000e+00 0.0000000000000000e+00 0.0000000000000000e+00  0.0000000000000000e+00 0.0000000000000000e+00 0.0000000000000000e+00  0.0000000000000000e+00 0.0000000000000000e+00 0.0000000000000000e+00  0.0000000000000000e+00 0.0000000000000000e+00 0.0000000000000000e+00  0.0000000000000000e+00 0.0000000000000000e+00 0.0000000000000000e+00  0.0000000000000000e+00 0.0000000000000000e+00 0.0000000000000000e+00  0.0000000000000000e+00 0.0000000000000000e+00 0.0000000000000000e+00  0.0000000000000000e+00 0.0000000000000000e+00 0.0000000000000000e+00  0.0000000000000000e+00 0.0000000000000000e+00 0.0000000000000000e+00  0.0000000000000000e+00 0.0000000000000000e+00 0.0000000000000000e+00  0.0000000000000000e+00 0.0000000000000000e+00 0.0000000000000000e+00  0.0000000000000000e+00 0.0000000000000000e+00 0.0000000000000000e+00  0.0000000000000000e+00 0.0000000000000000e+00 0.0000000000000000e+00  0.0000000000000000e+00 0.0000000000000000e+00 0.0000000000000000e+00  0.0000000000000000e+00 0.0000000000000000e+00 0.0000000000000000e+00  0.0000000000000000e+00 0.0000000000000000e+00 0.0000000000000000e+00  0.0000000000000000e+00 0.0000000000000000e+00 0.0000000000000000e+00  0.0000000000000000e+00 0.0000000000000000e+00 0.0000000000000000e+00  0.0000000000000000e+00 0.0000000000000000e+00 0.0000000000000000e+00  0.0000000000000000e+00 0.0000000000000000e+00 0.0000000000000000e+00  0.0000000000000000e+00 0.0000000000000000e+00 0.0000000000000000e+00  0.0000000000000000e+00 0.0000000000000000e+00 0.0000000000000000e+00  0.0000000000000000e+00 0.0000000000000000e+00 0.0000000000000000e+00  0.0000000000000000e+00 0.0000000000000000e+00 0.0000000000000000e+00  0.0000000000000000e+00 0.0000000000000000e+00 0.0000000000000000e+00  0.0000000000000000e+00 0.0000000000000000e+00 0.0000000000000000e+00  0.0000000000000000e+00 0.0000000000000000e+00 0.0000000000000000e+00  0.0000000000000000e+00 0.0000000000000000e+00 0.0000000000000000e+00  0.0000000000000000e+00 0.0000000000000000e+00 0.0000000000000000e+00  0.0000000000000000e+00 0.0000000000000000e+00 0.0000000000000000e+00  0.0000000000000000e+00 0.0000000000000000e+00 0.0000000000000000e+00  0.0000000000000000e+00 0.0000000000000000e+00 0.0000000000000000e+00  0.0000000000000000e+00 0.0000000000000000e+00 0.0000000000000000e+00  0.0000000000000000e+00 0.0000000000000000e+00 0.0000000000000000e+00  0.0000000000000000e+00 0.0000000000000000e+00 0.0000000000000000e+00  0.0000000000000000e+00 0.0000000000000000e+00 0.0000000000000000e+00  0.0000000000000000e+00 0.0000000000000000e+00 0.0000000000000000e+00  0.0000000000000000e+00 0.0000000000000000e+00 0.0000000000000000e+00  0.0000000000000000e+00 0.0000000000000000e+00 0.0000000000000000e+00  0.0000000000000000e+00 0.0000000000000000e+00 0.0000000000000000e+00  0.0000000000000000e+00 0.0000000000000000e+00 0.0000000000000000e+00  0.0000000000000000e+00 0.0000000000000000e+00 0.0000000000000000e+00  0.0000000000000000e+00 0.0000000000000000e+00 0.0000000000000000e+00  0.0000000000000000e+00 0.0000000000000000e+00 0.0000000000000000e+00  0.0000000000000000e+00 0.0000000000000000e+00 0.0000000000000000e+00  0.0000000000000000e+00 0.0000000000000000e+00 0.0000000000000000e+00  0.0000000000000000e+00 0.0000000000000000e+00 0.0000000000000000e+00  0.0000000000000000e+00 0.0000000000000000e+00 0.0000000000000000e+00  0.0000000000000000e+00 0.0000000000000000e+00 0.0000000000000000e+00  0.0000000000000000e+00 0.0000000000000000e+00 0.0000000000000000e+00  0.0000000000000000e+00 0.0000000000000000e+00 0.0000000000000000e+00  0.0000000000000000e+00 0.0000000000000000e+00 0.0000000000000000e+00  0.0000000000000000e+00 0.0000000000000000e+00 0.0000000000000000e+00  0.0000000000000000e+00 0.0000000000000000e+00 0.0000000000000000e+00  0.0000000000000000e+00 0.0000000000000000e+00 0.0000000000000000e+00  0.0000000000000000e+00 0.0000000000000000e+00 0.0000000000000000e+00  0.0000000000000000e+00 0.0000000000000000e+00 0.0000000000000000e+00  0.0000000000000000e+00 0.0000000000000000e+00 0.0000000000000000e+00  0.0000000000000000e+00 0.0000000000000000e+00 0.0000000000000000e+00  0.0000000000000000e+00 0.0000000000000000e+00 0.0000000000000000e+00  0.0000000000000000e+00 0.0000000000000000e+00 0.0000000000000000e+00  0.0000000000000000e+00 0.0000000000000000e+00 0.0000000000000000e+00  0.0000000000000000e+00 0.0000000000000000e+00 0.0000000000000000e+00  0.0000000000000000e+00 0.0000000000000000e+00 0.0000000000000000e+00  1.1906869931134688e-01 5.2582317977737014e-01 0.0000000000000000e+00  9.3514665726511972e-02 4.6333916249455986e-01 0.0000000000000000e+00  1.5929932343763309e-01 3.4514435232277263e-01 0.0000000000000000e+00  7.0156565350733280e-02 1.8566221928238849e-01 0.0000000000000000e+00  8.0614750639942487e-02 9.1956357880278769e-02 0.0000000000000000e+00  3.6896045247039294e-02 -2.0540094443518273e-02 0.0000000000000000e+00  5.1273077964345319e-02 -8.9751743431713882e-02 0.0000000000000000e+00  -7.2905471726796506e-03 -1.5545261312033165e-01 0.0000000000000000e+00  3.9951985095711948e-02 -1.9669072866665177e-01 0.0000000000000000e+00  -1.5933850072582367e-02 -2.2138629102775875e-01 0.0000000000000000e+00  4.2902425401289579e-02 -2.6604490457370633e-01 0.0000000000000000e+00  -1.4976693318876804e-02 -2.6821076809773159e-01 0.0000000000000000e+00  6.1488786175799143e-02 -3.1223140442709346e-01 0.0000000000000000e+00  1.3668483242140797e-02 -3.2912031172987022e-01 0.0000000000000000e+00  6.0108811106586836e-03 -3.0296206267282705e-01 0.0000000000000000e+00  3.5785136758838522e-02 -2.6521537820741398e-01 0.0000000000000000e+00  -2.5747106312497990e-03 -2.9200482581691095e-01 0.0000000000000000e+00  3.0447310533302449e-02 -2.7425939837391872e-01 0.0000000000000000e+00  -1.7851526984708804e-02 -2.8197480719722212e-01 0.0000000000000000e+00  2.9924939071345923e-02 -2.9639397120687866e-01 0.0000000000000000e+00  -4.3422449019943146e-02 -2.9182793902741005e-01 0.0000000000000000e+00  3.7750767442949494e-02 -3.1965736778529519e-01 0.0000000000000000e+00  -4.1700130107963654e-02 -3.4173385932897477e-01 0.0000000000000000e+00  -6.5490962200234773e-02 -3.3592443097805236e-01 0.0000000000000000e+00  -3.1230978421478275e-02 -4.0150102636322527e-01 0.0000000000000000e+00  -6.7872349366412177e-02 -3.8484913604018711e-01 0.0000000000000000e+00  -3.6386918904197180e-02 -4.5362263000693637e-01 0.0000000000000000e+00  -9.3278898494545667e-02 -4.6427372528627137e-01 0.0000000000000000e+00  -2.8354743414938854e-03 -4.8493025707331477e-01 0.0000000000000000e+00  -1.0667832397145288e-01 -4.9472284710295467e-01 0.0000000000000000e+00  1.6694334134976481e-03 -5.2510268789135528e-01 0.0000000000000000e+00  -9.5414118303223119e-02 -4.7307299635761541e-01 0.0000000000000000e+00  2.8899765458828511e-02 -6.6047915893456521e-01 0.0000000000000000e+00  -5.1726359331699313e-02 -6.5782098069063588e-01 0.0000000000000000e+00  6.9034299256771459e-02 -4.8082992783283701e-01 0.0000000000000000e+00  -2.9499340437056175e-02 -4.6305661103022311e-01 0.0000000000000000e+00  7.2160240569614439e-02 -4.5931887195390325e-01 0.0000000000000000e+00  -3.4278892424021656e-02 -5.3636653691699443e-01 0.0000000000000000e+00  1.0517474642387618e-01 -5.3182772715191851e-01 0.0000000000000000e+00  1.4119654700958483e-02 -4.8234783049320989e-01 0.0000000000000000e+00  1.2679838936838994e-01 -4.0707208490118635e-01 0.0000000000000000e+00  7.7572515192266697e-02 -4.0767114471249000e-01 0.0000000000000000e+00  3.6951553762818744e-02 -3.4900511586004651e-01 0.0000000000000000e+00  1.2828801434383980e-01 -2.4506660570088601e-01 0.0000000000000000e+00  8.7623415921712189e-02 -3.6889684459530092e-01 0.0000000000000000e+00  2.1639889230562462e-01 -3.5450145870189226e-01 0.0000000000000000e+00  2.0787123001072180e-01 -2.4709943173968238e-01 0.0000000000000000e+00  1.8713026704257306e-02 -1.6358203259884330e-01 0.0000000000000000e+00  4.1071157878552318e-02 -1.8754910951660217e-01 0.0000000000000000e+00  1.2010249625904856e-01 -2.5978019189435658e-01 0.0000000000000000e+00  3.3798832708804849e-02 -2.9495918570965446e-01 0.0000000000000000e+00  1.0479339812484802e-01 -3.6007525166682358e-01 0.0000000000000000e+00  5.3694571185603501e-02 -3.5631067942285216e-01 0.0000000000000000e+00  -4.0913307250217282e-03 -4.0207775154911396e-01 0.0000000000000000e+00  1.1072912188050324e-01 -4.1450228226078095e-01 0.0000000000000000e+00  -2.3447357870466628e-02 -4.3978572543511024e-01 0.0000000000000000e+00  8.9552871598247430e-02 -4.5389093521555551e-01 0.0000000000000000e+00  -4.2824702873827378e-02 -4.5596900021931913e-01 0.0000000000000000e+00  8.2508961870599681e-02 -4.6053260022618975e-01 0.0000000000000000e+00  -3.6395731328414359e-02 -4.7609459586050557e-01 0.0000000000000000e+00  8.3188322851574820e-02 -4.9980931585384036e-01 0.0000000000000000e+00  -7.8624494562925307e-02 -5.0099888327849307e-01 0.0000000000000000e+00  3.9552135532828284e-02 -4.8131600160993282e-01 0.0000000000000000e+00  -8.4859514514892917e-02 -4.6390304872990451e-01 0.0000000000000000e+00  3.4304719793879272e-02 -4.4751809477109522e-01 0.0000000000000000e+00  -8.7837608359033731e-02 -4.3171081553047291e-01 0.0000000000000000e+00  2.2759852264064302e-02 -4.0830231174170734e-01 0.0000000000000000e+00  -8.4233133062919768e-02 -3.9128090971233265e-01 0.0000000000000000e+00  1.8197227637242915e-02 -3.7375565560420704e-01 0.0000000000000000e+00  -7.7132628307564857e-02 -3.5286061105979127e-01 0.0000000000000000e+00  1.6621415577874551e-02 -3.4593753560379398e-01 0.0000000000000000e+00  -3.3102107519731659e-02 -3.2501227795049398e-01 0.0000000000000000e+00  -6.1525677629768800e-02 -3.2480391555999272e-01 0.0000000000000000e+00  -2.6451306790027610e-03 -2.9101358626940887e-01 0.0000000000000000e+00  -5.0287679299866279e-02 -2.9760601415923371e-01 0.0000000000000000e+00  5.9349129599002553e-03 -2.9646991795622685e-01 0.0000000000000000e+00  -4.4992284754181752e-02 -2.9653069608441252e-01 0.0000000000000000e+00  5.1350492124362787e-03 -2.9408968508170125e-01 0.0000000000000000e+00  -3.9873536980940434e-02 -2.8668849699903759e-01 0.0000000000000000e+00  1.1541931943339748e-02 -2.9994396161449499e-01 0.0000000000000000e+00  -1.0457905383506822e-02 -2.9888640940848693e-01 0.0000000000000000e+00  -7.6155274537408349e-02 -3.0890443478846991e-01 0.0000000000000000e+00  -2.3793750902729948e-03 -2.7335846937911185e-01 0.0000000000000000e+00  -8.2080994967803800e-02 -2.6158158001477505e-01 0.0000000000000000e+00  -1.4467645353877017e-02 -2.2990013385247665e-01 0.0000000000000000e+00  -7.6276649710510458e-02 -1.9851681082016046e-01 0.0000000000000000e+00  -1.8168017920682587e-02 -1.5639840749253295e-01 0.0000000000000000e+00  -5.8307793900175542e-02 -1.0150571910913563e-01 0.0000000000000000e+00  -2.9278356888861577e-02 -2.7571246257841308e-02 0.0000000000000000e+00  -4.4278314668047797e-02 7.8436708083986145e-02 0.0000000000000000e+00  5.4410445464988567e-04 1.4306452205862247e-01 0.0000000000000000e+00  -1.0857960797503807e-01 3.4492211969141223e-01 0.0000000000000000e+00  -1.6916665203218692e-01 6.0002248037148709e-01 0.0000000000000000e+00  -1.9324368004310993e-01 5.4024886469816813e-01 0.0000000000000000e+00  -1.0673244010271348e-02 -3.0768145630340299e-01 0.0000000000000000e+00  -1.3846235003322549e-02 1.8790920424358129e-01 0.0000000000000000e+00  5.3307322098161292e-03 2.4573156402810151e-01 0.0000000000000000e+00  1.0528842606881309e-02 3.4477882017271833e-01 0.0000000000000000e+00  -3.6572933239796428e-02 -2.1213273938243196e-01 0.0000000000000000e+00  1.3875802672381485e-02 3.8246209726685954e-01 0.0000000000000000e+00  9.2927342681027574e-03 -4.5155778947372077e-02 0.0000000000000000e+00  1.4655929849651569e-02 3.7485303316460195e-01 0.0000000000000000e+00  4.8508181706364128e-03 1.4134001218953485e-01 0.0000000000000000e+00  -4.9544574385315546e-04 1.9352635334116533e-01 0.0000000000000000e+00  -3.7197886468216805e-02 4.1465446070362122e-01 0.0000000000000000e+00  5.4042801211487057e-03 2.3353166905552314e-01 0.0000000000000000e+00  -1.4417484289300349e-02 3.7859289280817909e-01 0.0000000000000000e+00  -3.9049146608559058e-03 2.1572645293451620e-01 0.0000000000000000e+00  1.5971698548876905e-04 2.3031029438711845e-01 0.0000000000000000e+00  -1.0188268796713539e-02 3.5402683016545455e-01 0.0000000000000000e+00  2.9216105581379707e-02 4.1463699902834367e-01 0.0000000000000000e+00  -6.8972286221038572e-03 2.3476701189692875e-01 0.0000000000000000e+00  -4.4599881221809769e-03 3.1918501694913132e-01 0.0000000000000000e+00  -1.4560849949739969e-03 2.4044169302648438e-01 0.0000000000000000e+00  -1.1514045782402213e-02 2.8345954942991713e-01 0.0000000000000000e+00  6.4120500486560877e-03 2.1622353367086927e-01 0.0000000000000000e+00  -1.2180438700243783e-03 1.9612625151434038e-01 0.0000000000000000e+00  -8.0907244348069531e-03 2.5962001257950018e-01 0.0000000000000000e+00  5.6184256411730927e-03 6.5705016632601074e-02 0.0000000000000000e+00  3.3804035622191577e-03 1.7914231647762832e-01 0.0000000000000000e+00  -6.8710761172354487e-02 -2.7642586828171400e-01 0.0000000000000000e+00  -1.4672016650379629e-03 2.5895579935013652e-01 0.0000000000000000e+00  -1.4670724516232199e-02 2.6875058065279900e-01 0.0000000000000000e+00  3.1031373598916046e-02 -7.7293339414811577e-02 0.0000000000000000e+00  1.3233395156759309e-02 1.2371838547511593e-01 0.0000000000000000e+00  8.3394974677753104e-04 2.6880787004814022e-01 0.0000000000000000e+00  -3.1491598049095122e-03 2.6075357276122424e-01 0.0000000000000000e+00  -1.1114026037364061e-02 1.6479274545444256e-01 0.0000000000000000e+00  2.9515126609582095e-03 2.4970696117337268e-01 0.0000000000000000e+00  1.2914905213043348e-02 1.4427409037730216e-01 0.0000000000000000e+00  -9.5786293562342755e-04 1.6609305652683834e-01 0.0000000000000000e+00  6.4972239226950348e-04 2.4166361681424789e-01 0.0000000000000000e+00  -1.5751792971981551e-03 3.2642801441602443e-01 0.0000000000000000e+00  1.0955576984731399e-02 1.8746528039084412e-01 0.0000000000000000e+00  5.1896457780167488e-03 2.0197805176315894e-01 0.0000000000000000e+00  -4.7458545518756362e-02 -2.9684970150991230e-01 0.0000000000000000e+00  1.0052774711779225e-01 -2.6639760210446956e-01 0.0000000000000000e+00  -1.1813937932288168e-01 1.4587266595190918e-01 0.0000000000000000e+00  2.1303121240047431e-02 -2.7615806987494040e-01 0.0000