<?xml version="1.0"?>
<VTKFile type="UnstructuredGrid"  version="0.1"  >
<UnstructuredGrid>
<Piece  NumberOfPoints="1419" NumberOfCells="2698">
<Points>
<DataArray  type="Float64"  NumberOfComponents="3"  format="ascii">1.316575345306441e-07 -2.576158618949008e-06 0  1.607137419124746e-07 0.4099974127138198 0  2.500000333379722 -3.917453118232512e-06 0  2.500000333379762 0.4099960825469167 0  0.6000003721389005 0.189995955700846 0  0.6000004119207022 0.2099959516465887 0  0.25 0.2 0  0.1500001442283511 0.199997443562847 0  0.2489897948556636 0.21 0  0.2489897948556636 0.19 0  0.6000004022618441 0.1999959393171721 0  1.603505596922558e-07 0.3807116992339695 0  1.593213895175632e-07 0.3514259871388502 0  1.576140129407719e-07 0.3221402760975112 0  1.552648694645668e-07 0.2928545653985349 0  1.524108279721717e-07 0.2635688544985847 0  1.49172937612462e-07 0.2342831430349766 0  1.457025396710244e-07 0.2049974304626467 0  1.422697950471484e-07 0.1757117168833195 0  1.391239256306597e-07 0.1464260022013613 0  1.364108698794557e-07 0.1171402866283187 0  1.343301672380285e-07 0.08785457050528175 0  1.328196981124198e-07 0.05856885432104278 0  1.319367241785441e-07 0.02928313861955629 0  0.03015456896657083 -2.576712606042632e-06 0  0.06140015028013933 -2.578716366605473e-06 0  0.09377636957545805 -2.583246044974603e-06 0  0.1273241223947132 -2.592179832141152e-06 0  0.1620858102687621 -2.608896907910969e-06 0  0.1981053656500593 -2.64172928869142e-06 0  0.2354283063929475 -2.703282782649129e-06 0  0.274101783268482 -2.802124211544801e-06 0  0.3141746855492162 -2.940098799469737e-06 0  0.3556976401420868 -3.113130835187653e-06 0  0.3987231218705181 -3.300758841642139e-06 0  0.443305499165654 -3.480482434117649e-06 0  0.489501099663031 -3.636515321087835e-06 0  0.537368315121973 -3.755270302204781e-06 0  0.5869676150799708 -3.833424361201233e-06 0  0.6383616688787377 -3.880295622238094e-06 0  0.6916154283499334 -3.903071888116363e-06 0  0.7467961819779944 -3.912953587340962e-06 0  0.8039736734777085 -3.916900929609727e-06 0  0.8632201437018425 -3.918155997772872e-06 0  0.9246104639737343 -3.918323071818551e-06 0  0.9882222132288747 -3.918142646798377e-06 0  1.054135778221053 -3.917933947467216e-06 0  1.122434433497822 -3.917762938080722e-06 0  1.193204510279998 -3.917639455868403e-06 0  1.266535423124976 -3.917560821039033e-06 0  1.342519849350781 -3.917514587180922e-06 0  1.421253781842309 -3.917487208880315e-06 0  1.502836722464266 -3.917471144473819e-06 0  1.587371773127302 -3.917462491849216e-06 0  1.674965752151347 -3.917457911648112e-06 0  1.765729335202443 -3.917455473704228e-06 0  1.859777242258417 -3.917454275108293e-06 0  1.95722831086615 -3.917453646590282e-06 0  2.058205663249375 -3.917453360451662e-06 0  2.162836924569558 -3.91745321441915e-06 0  2.271254290670543 -3.917453152538323e-06 0  2.383594780183136 -3.91745312605538e-06 0  2.500000333379726 0.1024960825466479 0  2.500000333379742 0.2049960825463732 0  2.500000333379756 0.30749608254663 0  2.383594780183428 0.4099960825469243 0  2.271254290671117 0.4099960825469517 0  2.16283692457048 0.4099960825470163 0  2.058205663250823 0.4099960825471556 0  1.957228310868454 0.4099960825474387 0  1.859777242262422 0.409996082548098 0  1.765729335209457 0.4099960825492929 0  1.67496575216445 0.4099960825518318 0  1.587371773151514 0.4099960825564248 0  1.502836722509421 0.4099960825651741 0  1.421253781927034 0.4099960825820855 0  1.342519849502752 0.4099960826108133 0  1.266535423392497 0.4099960826610403 0  1.193204510754577 0.4099960827555671 0  1.122434434321873 0.4099960829249638 0  1.054135779586461 0.4099960832079557 0  0.9882222155115367 0.4099960837674084 0  0.9246104676539969 0.4099960847932945 0  0.8632201496040579 0.4099960867549906 0  0.8039736827127804 0.4099960906762175 0  0.7467961960771777 0.4099960985470755 0  0.6916154489902749 0.4099961139235461 0  0.6383616976928654 0.40999614404266 0  0.5869676536001167 0.4099961963277176 0  0.5373683631252539 0.4099962781906982 0  0.489501156210318 0.4099963965388628 0  0.4433055633532329 0.4099965457100625 0  0.3987231918845228 0.4099967147891908 0  0.3556977132261796 0.4099968888094113 0  0.3141747586441034 0.4099970494962817 0  0.2741018524266319 0.4099971812888876 0  0.235428369425317 0.4099972750098641 0  0.198105421090246 0.4099973361498229 0  0.1620858579597285 0.4099973718170917 0  0.1273241632813905 0.4099973916179515 0  0.09377640510739685 0.4099974029929679 0  0.06140018212074024 0.4099974088902382 0  0.03015459864837364 0.4099974119502938 0  0.2497468076502589 0.2050254481002335 0  0.2497468076502614 0.1949745518997913 0  0.2469965564363451 0.1829304806321081 0  0.2439894247837608 0.176229967102728 0  0.2400332807037197 0.1700424013684022 0  0.2352134742836347 0.164501181044748 0  0.2296339876821216 0.1597257988071026 0  0.2234151909232508 0.1558192600800552 0  0.2166912461055218 0.1528658307427062 0  0.2096072129578962 0.1509292193422773 0  0.2023159198501335 0.1500511972853762 0  0.1949746658516271 0.1502507054668014 0  0.1877418283066605 0.1515234352860388 0  0.1807734452579175 0.1538419282190894 0  0.1742198497762588 0.157156163828692 0  0.1682224262050696 0.1613946415991397 0  0.1629105605242525 0.1664659212016875 0  0.1583988485315463 0.1722605967789047 0  0.1547846240764582 0.1786536559428754 0  0.1521458588047759 0.185507177505488 0  0.1505394804432514 0.192673306339996 0  0.150539485690908 0.207321581424147 0  0.1521458693518598 0.2144877122563241 0  0.1547846398080987 0.2213412372817438 0  0.1583988695295914 0.2277343018057358 0  0.1629105867020765 0.2335289849866365 0  0.1682224576575209 0.2386002755540191 0  0.1742198863882696 0.2428387680643281 0  0.1807734871259896 0.2461530241063436 0  0.1877418753794249 0.248471545094029 0  0.1949747181659462 0.2497443135125355 0  0.2023159773411488 0.2499438726234436 0  0.2096072757435328 0.2490659214601149 0  0.2166913139638451 0.2471294030752925 0  0.2234152637854636 0.2441761030805517 0  0.22963406538817 0.2402697388103552 0  0.2352135561122163 0.2354946013368164 0  0.2400333654114201 0.2299537203118808 0  0.2439895088020832 0.2237666827461023 0  0.2469966293552057 0.2170670598208036 0  0.2564582117108308 0.2099988157677255 0  0.2639265481625674 0.2099984205002104 0  0.2713948876623535 0.2099981647246884 0  0.2788631970932627 0.2099979622525573 0  0.2863315093516091 0.2099977902469205 0  0.2937998103187729 0.2099976413245871 0  0.3012681151122867 0.2099975094850292 0  0.3087364161419071 0.2099973910752509 0  0.3162047214832099 0.2099972813794401 0  0.3236730215204748 0.2099971802791368 0  0.3311413291671976 0.2099970866947549 0  0.3386096286449682 0.2099970000499982 0  0.3460779365200239 0.2099969155161096 0  0.3535462369593915 0.2099968260209052 0  0.361014536499829 0.2099967723355499 0  0.368482841331456 0.2099967127706627 0  0.3759511355124983 0.2099966508193087 0  0.3834194379376946 0.2099965916142229 0  0.3908877296832842 0.2099965335570786 0  0.3983560309779992 0.209996476660771 0  0.4058243201487157 0.2099964214322632 0  0.4132926203733079 0.209996359131114 0  0.4207609066281928 0.2099962846172682 0  0.4282292061950678 0.2099962519653006 0  0.4356975150761696 0.2099962014846402 0  0.4431658173275682 0.2099961609109393 0  0.4506341346585147 0.2099961114615998 0  0.4581024434484282 0.2099960774246258 0  0.4655707738163021 0.2099960286131061 0  0.4730390886681549 0.2099959891558549 0  0.4805074198392763 0.2099959829058149 0  0.4879757325728088 0.2099959774770241 0  0.4954440713469575 0.2099959034744712 0  0.5029123821265984 0.2099958776354924 0  0.5103807195405851 0.2099959185098251 0  0.5178490297358549 0.2099958962641349 0  0.5253173547911093 0.2099958711390457 0  0.5327856674093812 0.2099958565508968 0  0.5402539991894999 0.2099958510857335 0  0.5477223133760112 0.209995846403868 0  0.5551906398320151 0.2099958529937993 0  0.5626589514854238 0.2099958393234865 0  0.5701272428786615 0.2099958751398304 0  0.5775955475191307 0.2099959011273693 0  0.5850638402974578 0.2099959047432113 0  0.5925321356434935 0.2099959208019418 0  0.6000004142143682 0.2049959402072097 0  0.6000003832704487 0.194995947971496 0  0.5925320714710868 0.1899959341898776 0  0.5850637754040241 0.189995905946131 0  0.5775954631138043 0.1899958800434857 0  0.5701271609540401 0.1899958551925103 0  0.5626588504790851 0.189995821245313 0  0.5551905345715391 0.1899958270995857 0  0.5477222307090395 0.189995820112374 0  0.5402539058869558 0.1899958161574397 0  0.5327855998709974 0.1899958204576018 0  0.5253172731386121 0.1899958302582945 0  0.5178489681017294 0.1899958401359119 0  0.5103806498982928 0.1899958457717922 0  0.5029123384597229 0.1899958523933223 0  0.4954439956769709 0.189995869980155 0  0.4879756844800827 0.18999589812629 0  0.4805073644538777 0.1899959273773439 0  0.4730390569028073 0.189995954715592 0  0.4655707239240744 0.1899959864187882 0  0.4581024170638605 0.1899960263957982 0  0.4506340954510362 0.1899960727644662 0  0.4431657924240303 0.1899961220240054 0  0.4356974724201858 0.1899961737444418 0  0.4282291692505819 0.1899962245851736 0  0.420760856212437 0.1899962645874252 0  0.4132925479080283 0.1899963384220086 0  0.4058242484257198 0.1899964049084091 0  0.3983559396305007 0.1899964660984705 0  0.3908876389580856 0.1899965271383499 0  0.3834193298782886 0.1899965879156802 0  0.37595102818873 0.1899966493416165 0  0.3684827197508044 0.1899967120181719 0  0.3610144191152262 0.1899967727467778 0  0.3535461103816271 0.1899968298178151 0  0.3460778008866344 0.1899969180131891 0  0.3386094983980025 0.1899970040056231 0  0.3311411895096049 0.1899970919418922 0  0.32367288903073 0.1899971851529254 0  0.3162045840291361 0.1899972858855538 0  0.3087362846771012 0.1899973939460052 0  0.3012679822457851 0.1899975118423768 0  0.2937996808594032 0.1899976446055742 0  0.2863313732318951 0.1899977924531763 0  0.2788630689059677 0.1899979587028559 0  0.271394739606812 0.1899981712602502 0  0.2639264220789694 0.1899984491133383 0  0.2564581016446906 0.1899988232934
[...]
<PointData  Vectors="f_30-0"> 
<DataArray  type="Float64"  Name="f_30-0"  NumberOfComponents="3" format="ascii">0.0000000000000000e+00 0.0000000000000000e+00 0.0000000000000000e+00  0.0000000000000000e+00 0.0000000000000000e+00 0.0000000000000000e+00  0.0000000000000000e+00 0.0000000000000000e+00 0.0000000000000000e+00  0.0000000000000000e+00 0.0000000000000000e+00 0.0000000000000000e+00  6.5468917299084745e-02 -1.3532901303893702e-01 0.0000000000000000e+00  1.4818250239270028e-01 -1.2312450126827594e-01 0.0000000000000000e+00  0.0000000000000000e+00 0.0000000000000000e+00 0.0000000000000000e+00  0.0000000000000000e+00 0.0000000000000000e+00 0.0000000000000000e+00  0.0000000000000000e+00 0.0000000000000000e+00 0.0000000000000000e+00  0.0000000000000000e+00 0.0000000000000000e+00 0.0000000000000000e+00  2.4187111408195947e-01 -2.7675144249441036e-01 0.0000000000000000e+00  0.0000000000000000e+00 0.0000000000000000e+00 0.0000000000000000e+00  0.0000000000000000e+00 0.0000000000000000e+00 0.0000000000000000e+00  0.0000000000000000e+00 0.0000000000000000e+00 0.0000000000000000e+00  0.0000000000000000e+00 0.0000000000000000e+00 0.0000000000000000e+00  0.0000000000000000e+00 0.0000000000000000e+00 0.0000000000000000e+00  0.0000000000000000e+00 0.0000000000000000e+00 0.0000000000000000e+00  0.0000000000000000e+00 0.0000000000000000e+00 0.0000000000000000e+00  0.0000000000000000e+00 0.0000000000000000e+00 0.0000000000000000e+00  0.0000000000000000e+00 0.0000000000000000e+00 0.0000000000000000e+00  0.0000000000000000e+00 0.0000000000000000e+00 0.0000000000000000e+00  0.0000000000000000e+00 0.0000000000000000e+00 0.0000000000000000e+00  0.0000000000000000e+00 0.0000000000000000e+00 0.0000000000000000e+00  0.0000000000000000e+00 0.0000000000000000e+00 0.0000000000000000e+00  0.0000000000000000e+00 0.0000000000000000e+00 0.0000000000000000e+00  0.0000000000000000e+00 0.0000000000000000e+00 0.0000000000000000e+00  0.0000000000000000e+00 0.0000000000000000e+00 0.0000000000000000e+00  0.0000000000000000e+00 0.0000000000000000e+00 0.0000000000000000e+00  0.0000000000000000e+00 0.0000000000000000e+00 0.0000000000000000e+00  0.0000000000000000e+00 0.0000000000000000e+00 0.0000000000000000e+00  0.0000000000000000e+00 0.0000000000000000e+00 0.0000000000000000e+00  0.0000000000000000e+00 0.0000000000000000e+00 0.0000000000000000e+00  0.0000000000000000e+00 0.0000000000000000e+00 0.0000000000000000e+00  0.0000000000000000e+00 0.0000000000000000e+00 0.0000000000000000e+00  0.0000000000000000e+00 0.0000000000000000e+00 0.0000000000000000e+00  0.0000000000000000e+00 0.0000000000000000e+00 0.0000000000000000e+00  0.0000000000000000e+00 0.0000000000000000e+00 0.0000000000000000e+00  0.0000000000000000e+00 0.0000000000000000e+00 0.0000000000000000e+00  0.0000000000000000e+00 0.0000000000000000e+00 0.0000000000000000e+00  0.0000000000000000e+00 0.0000000000000000e+00 0.0000000000000000e+00  0.0000000000000000e+00 0.0000000000000000e+00 0.0000000000000000e+00  0.0000000000000000e+00 0.0000000000000000e+00 0.0000000000000000e+00  0.0000000000000000e+00 0.0000000000000000e+00 0.0000000000000000e+00  0.0000000000000000e+00 0.0000000000000000e+00 0.0000000000000000e+00  0.0000000000000000e+00 0.0000000000000000e+00 0.0000000000000000e+00  0.0000000000000000e+00 0.0000000000000000e+00 0.0000000000000000e+00  0.0000000000000000e+00 0.0000000000000000e+00 0.0000000000000000e+00  0.0000000000000000e+00 0.0000000000000000e+00 0.0000000000000000e+00  0.0000000000000000e+00 0.0000000000000000e+00 0.0000000000000000e+00  0.0000000000000000e+00 0.0000000000000000e+00 0.0000000000000000e+00  0.0000000000000000e+00 0.0000000000000000e+00 0.0000000000000000e+00  0.0000000000000000e+00 0.0000000000000000e+00 0.0000000000000000e+00  0.0000000000000000e+00 0.0000000000000000e+00 0.0000000000000000e+00  0.0000000000000000e+00 0.0000000000000000e+00 0.0000000000000000e+00  0.0000000000000000e+00 0.0000000000000000e+00 0.0000000000000000e+00  0.0000000000000000e+00 0.0000000000000000e+00 0.0000000000000000e+00  0.0000000000000000e+00 0.0000000000000000e+00 0.0000000000000000e+00  0.0000000000000000e+00 0.0000000000000000e+00 0.0000000000000000e+00  0.0000000000000000e+00 0.0000000000000000e+00 0.0000000000000000e+00  0.0000000000000000e+00 0.0000000000000000e+00 0.0000000000000000e+00  0.0000000000000000e+00 0.0000000000000000e+00 0.0000000000000000e+00  0.0000000000000000e+00 0.0000000000000000e+00 0.0000000000000000e+00  1.0555078721010718e-08 3.7127160820104483e-09 0.0000000000000000e+00  -2.2319111485881501e-10 5.4292794239607314e-09 0.0000000000000000e+00  -1.0843413747928563e-08 4.2068919199808284e-09 0.0000000000000000e+00  0.0000000000000000e+00 0.0000000000000000e+00 0.0000000000000000e+00  0.0000000000000000e+00 0.0000000000000000e+00 0.0000000000000000e+00  0.0000000000000000e+00 0.0000000000000000e+00 0.0000000000000000e+00  0.0000000000000000e+00 0.0000000000000000e+00 0.0000000000000000e+00  0.0000000000000000e+00 0.0000000000000000e+00 0.0000000000000000e+00  0.0000000000000000e+00 0.0000000000000000e+00 0.0000000000000000e+00  0.0000000000000000e+00 0.0000000000000000e+00 0.0000000000000000e+00  0.0000000000000000e+00 0.0000000000000000e+00 0.0000000000000000e+00  0.0000000000000000e+00 0.0000000000000000e+00 0.0000000000000000e+00  0.0000000000000000e+00 0.0000000000000000e+00 0.0000000000000000e+00  0.0000000000000000e+00 0.0000000000000000e+00 0.0000000000000000e+00  0.0000000000000000e+00 0.0000000000000000e+00 0.0000000000000000e+00  0.0000000000000000e+00 0.0000000000000000e+00 0.0000000000000000e+00  0.0000000000000000e+00 0.0000000000000000e+00 0.0000000000000000e+00  0.0000000000000000e+00 0.0000000000000000e+00 0.0000000000000000e+00  0.0000000000000000e+00 0.0000000000000000e+00 0.0000000000000000e+00  0.0000000000000000e+00 0.0000000000000000e+00 0.0000000000000000e+00  0.0000000000000000e+00 0.0000000000000000e+00 0.0000000000000000e+00  0.0000000000000000e+00 0.0000000000000000e+00 0.0000000000000000e+00  0.0000000000000000e+00 0.0000000000000000e+00 0.0000000000000000e+00  0.0000000000000000e+00 0.0000000000000000e+00 0.0000000000000000e+00  0.0000000000000000e+00 0.0000000000000000e+00 0.0000000000000000e+00  0.0000000000000000e+00 0.0000000000000000e+00 0.0000000000000000e+00  0.0000000000000000e+00 0.0000000000000000e+00 0.0000000000000000e+00  0.0000000000000000e+00 0.0000000000000000e+00 0.0000000000000000e+00  0.0000000000000000e+00 0.0000000000000000e+00 0.0000000000000000e+00  0.0000000000000000e+00 0.0000000000000000e+00 0.0000000000000000e+00  0.0000000000000000e+00 0.0000000000000000e+00 0.0000000000000000e+00  0.0000000000000000e+00 0.0000000000000000e+00 0.0000000000000000e+00  0.0000000000000000e+00 0.0000000000000000e+00 0.0000000000000000e+00  0.0000000000000000e+00 0.0000000000000000e+00 0.0000000000000000e+00  0.0000000000000000e+00 0.0000000000000000e+00 0.0000000000000000e+00  0.0000000000000000e+00 0.0000000000000000e+00 0.0000000000000000e+00  0.0000000000000000e+00 0.0000000000000000e+00 0.0000000000000000e+00  0.0000000000000000e+00 0.0000000000000000e+00 0.0000000000000000e+00  0.0000000000000000e+00 0.0000000000000000e+00 0.0000000000000000e+00  0.0000000000000000e+00 0.0000000000000000e+00 0.0000000000000000e+00  0.0000000000000000e+00 0.0000000000000000e+00 0.0000000000000000e+00  0.0000000000000000e+00 0.0000000000000000e+00 0.0000000000000000e+00  0.0000000000000000e+00 0.0000000000000000e+00 0.0000000000000000e+00  0.0000000000000000e+00 0.0000000000000000e+00 0.0000000000000000e+00  0.0000000000000000e+00 0.0000000000000000e+00 0.0000000000000000e+00  0.0000000000000000e+00 0.0000000000000000e+00 0.0000000000000000e+00  0.0000000000000000e+00 0.0000000000000000e+00 0.0000000000000000e+00  0.0000000000000000e+00 0.0000000000000000e+00 0.0000000000000000e+00  0.0000000000000000e+00 0.0000000000000000e+00 0.0000000000000000e+00  0.0000000000000000e+00 0.0000000000000000e+00 0.0000000000000000e+00  0.0000000000000000e+00 0.0000000000000000e+00 0.0000000000000000e+00  0.0000000000000000e+00 0.0000000000000000e+00 0.0000000000000000e+00  0.0000000000000000e+00 0.0000000000000000e+00 0.0000000000000000e+00  0.0000000000000000e+00 0.0000000000000000e+00 0.0000000000000000e+00  0.0000000000000000e+00 0.0000000000000000e+00 0.0000000000000000e+00  0.0000000000000000e+00 0.0000000000000000e+00 0.0000000000000000e+00  0.0000000000000000e+00 0.0000000000000000e+00 0.0000000000000000e+00  0.0000000000000000e+00 0.0000000000000000e+00 0.0000000000000000e+00  0.0000000000000000e+00 0.0000000000000000e+00 0.0000000000000000e+00  0.0000000000000000e+00 0.0000000000000000e+00 0.0000000000000000e+00  0.0000000000000000e+00 0.0000000000000000e+00 0.0000000000000000e+00  0.0000000000000000e+00 0.0000000000000000e+00 0.0000000000000000e+00  0.0000000000000000e+00 0.0000000000000000e+00 0.0000000000000000e+00  0.0000000000000000e+00 0.0000000000000000e+00 0.0000000000000000e+00  0.0000000000000000e+00 0.0000000000000000e+00 0.0000000000000000e+00  0.0000000000000000e+00 0.0000000000000000e+00 0.0000000000000000e+00  0.0000000000000000e+00 0.0000000000000000e+00 0.0000000000000000e+00  0.0000000000000000e+00 0.0000000000000000e+00 0.0000000000000000e+00  0.0000000000000000e+00 0.0000000000000000e+00 0.0000000000000000e+00  0.0000000000000000e+00 0.0000000000000000e+00 0.0000000000000000e+00  0.0000000000000000e+00 0.0000000000000000e+00 0.0000000000000000e+00  0.0000000000000000e+00 0.0000000000000000e+00 0.0000000000000000e+00  0.0000000000000000e+00 0.0000000000000000e+00 0.0000000000000000e+00  0.0000000000000000e+00 0.0000000000000000e+00 0.0000000000000000e+00  0.0000000000000000e+00 0.0000000000000000e+00 0.0000000000000000e+00  0.0000000000000000e+00 0.0000000000000000e+00 0.0000000000000000e+00  0.0000000000000000e+00 0.0000000000000000e+00 0.0000000000000000e+00  0.0000000000000000e+00 0.0000000000000000e+00 0.0000000000000000e+00  0.0000000000000000e+00 0.0000000000000000e+00 0.0000000000000000e+00  0.0000000000000000e+00 0.0000000000000000e+00 0.0000000000000000e+00  0.0000000000000000e+00 0.0000000000000000e+00 0.0000000000000000e+00  9.7292524537406069e-02 7.6449020450915706e-01 0.0000000000000000e+00  6.5657526280385237e-02 7.1555298194832095e-01 0.0000000000000000e+00  2.6060299939396292e-01 5.7468005344743511e-01 0.0000000000000000e+00  1.2014503531151058e-01 3.5558931555938272e-01 0.0000000000000000e+00  1.5635705826998633e-01 2.1891699102204787e-01 0.0000000000000000e+00  6.5200639806244229e-02 8.8268359508885660e-02 0.0000000000000000e+00  8.2940111740111788e-02 -2.7119017088757647e-05 0.0000000000000000e+00  1.7573677191391520e-02 -9.6158295889337192e-02 0.0000000000000000e+00  4.9038661114883392e-02 -1.6927213859530027e-01 0.0000000000000000e+00  -8.0530390072109832e-03 -2.0605999199625311e-01 0.0000000000000000e+00  4.4498985588590494e-02 -2.7328561613463742e-01 0.0000000000000000e+00  -1.6055628174864695e-02 -2.7766789873431574e-01 0.0000000000000000e+00  6.4721109744524552e-02 -3.4023151261032242e-01 0.0000000000000000e+00  1.7758063790469340e-02 -3.7154264907758944e-01 0.0000000000000000e+00  6.2911383516439760e-03 -3.4172364164119506e-01 0.0000000000000000e+00  3.9100050370557311e-02 -3.0437749362132349e-01 0.0000000000000000e+00  -9.6964507290906374e-03 -3.3648752694996770e-01 0.0000000000000000e+00  2.4430473258501097e-02 -3.2805882982228168e-01 0.0000000000000000e+00  -3.9170645862796519e-02 -3.3494215270771577e-01 0.0000000000000000e+00  7.1295895169629217e-03 -3.7689524753463788e-01 0.0000000000000000e+00  -9.9043647573193880e-02 -3.4306530263952695e-01 0.0000000000000000e+00  -2.7367348463859737e-03 -4.2645143009152942e-01 0.0000000000000000e+00  -1.2855557148029784e-01 -4.7096072624752067e-01 0.0000000000000000e+00  -1.6723773295929878e-01 -4.4774887559669840e-01 0.0000000000000000e+00  -1.5336403349567829e-01 -7.1066136649399991e-01 0.0000000000000000e+00  -1.7717405510372219e-01 -5.7017362476007660e-01 0.0000000000000000e+00  -1.5479158090605863e-01 -8.0046054910499609e-01 0.0000000000000000e+00  -2.3834660123225676e-01 -6.1253574501162211e-01 0.0000000000000000e+00  2.6409925690682571e-02 -8.8185736833707684e-01 0.0000000000000000e+00  -1.5429493403392092e-01 -1.0892367758107537e+00 0.0000000000000000e+00  -1.1462602741658992e-02 -6.9128111518726676e-01 0.0000000000000000e+00  -1.6465287966550740e-01 -1.9578485636871212e-01 0.0000000000000000e+00  3.4396416899073995e-01 -1.0587963894191244e+00 0.0000000000000000e+00  -2.6662214044981597e-01 -1.2417177007475000e+00 0.0000000000000000e+00  1.9949691305548670e-01 -2.2445369121719225e-01 0.0000000000000000e+00  5.2351482954841745e-02 -5.3143009285965970e-01 0.0000000000000000e+00  1.1312440647581423e-01 -7.1782544309157792e-01 0.0000000000000000e+00  -2.3694793587391533e-02 -8.0812930617935519e-01 0.0000000000000000e+00  2.2071743975807059e-01 -7.6433560619605090e-01 0.0000000000000000e+00  1.1858530442197383e-01 -7.9873564722689272e-01 0.0000000000000000e+00  2.6349123812777225e-01 -5.0845603395277028e-01 0.0000000000000000e+00  2.0476908621274198e-01 -5.2722541318139837e-01 0.0000000000000000e+00  1.2673806219074879e-01 -4.6237336028335291e-01 0.0000000000000000e+00  2.2515828452325393e-01 -2.6937884878125129e-01 0.0000000000000000e+00  1.9807924602218052e-01 -5.2973656233623756e-01 0.0000000000000000e+00  3.7454959743717620e-01 -6.0795852330437350e-01 0.0000000000000000e+00  3.6075371622038049e-01 -3.7696174581699987e-01 0.0000000000000000e+00  7.4901022727423702e-02 -2.1691968394490171e-01 0.0000000000000000e+00  1.0199332754606256e-01 -2.4746053735884693e-01 0.0000000000000000e+00  1.9978993623257116e-01 -3.3603056999249620e-01 0.0000000000000000e+00  7.5923354629751388e-02 -3.8254447170890432e-01 0.0000000000000000e+00  1.7137128185708594e-01 -4.7167293570849883e-01 0.0000000000000000e+00  9.6780771413657374e-02 -4.6829784402353913e-01 0.0000000000000000e+00  4.6867409069599596e-02 -5.3930557712156524e-01 0.0000000000000000e+00  2.0082765294562868e-01 -5.9575598552369780e-01 0.0000000000000000e+00  -9.9752023113334372e-03 -6.3644159079212448e-01 0.0000000000000000e+00  1.2502086779998259e-01 -6.4100561751114471e-01 0.0000000000000000e+00  -8.1416347712104861e-02 -6.1184894511953236e-01 0.0000000000000000e+00  1.2621233782465402e-01 -5.7211115988135897e-01 0.0000000000000000e+00  6.0880859356834544e-02 -6.1050093743575073e-01 0.0000000000000000e+00  1.9841810284309605e-01 -7.3655927740815652e-01 0.0000000000000000e+00  -1.6975310703862689e-01 -7.3407591304386288e-01 0.0000000000000000e+00  1.8577806353210053e-04 -6.3690237339143929e-01 0.0000000000000000e+00  -7.1752756062261128e-02 -6.4402605081051134e-01 0.0000000000000000e+00  1.1315477977705146e-01 -7.1685221645834052e-01 0.0000000000000000e+00  -1.6401480094167945e-01 -7.1826395030058510e-01 0.0000000000000000e+00  -1.0236967300395612e-02 -6.5884953071005814e-01 0.0000000000000000e+00  -1.6429584954152579e-01 -6.1952363245565623e-01 0.0000000000000000e+00  -4.2991059088347281e-03 -5.7907256059321777e-01 0.0000000000000000e+00  -1.6243861066280976e-01 -5.3505286314159051e-01 0.0000000000000000e+00  -2.5789875368627150e-02 -4.9070265098860882e-01 0.0000000000000000e+00  -7.5741487449146355e-02 -4.4492911933884377e-01 0.0000000000000000e+00  -1.1869564658441810e-01 -4.3811569386449112e-01 0.0000000000000000e+00  -3.7810041909070918e-02 -3.7299927538342587e-01 0.0000000000000000e+00  -9.3242073911255566e-02 -3.6748105229375611e-01 0.0000000000000000e+00  -1.6933197803224633e-02 -3.5472507739706299e-01 0.0000000000000000e+00  -7.7431179173891113e-02 -3.4884780231109441e-01 0.0000000000000000e+00  -1.4864532781902418e-02 -3.3946154071559870e-01 0.0000000000000000e+00  -6.6395276004339421e-02 -3.2712942661145900e-01 0.0000000000000000e+00  -4.2970930702962056e-03 -3.3585130484145020e-01 0.0000000000000000e+00  -2.7028129441864182e-02 -3.2998384701536926e-01 0.0000000000000000e+00  -1.0001036066704047e-01 -3.3649368266222784e-01 0.0000000000000000e+00  -2.2574422718977701e-02 -2.8761788556593176e-01 0.0000000000000000e+00  -1.0351103103334136e-01 -2.6537056030500722e-01 0.0000000000000000e+00  -3.5154994058547571e-02 -2.1811869309018386e-01 0.0000000000000000e+00  -8.4359293560992130e-02 -1.7517122257146570e-01 0.0000000000000000e+00  -3.1023987815176703e-02 -1.0727276591789243e-01 0.0000000000000000e+00  -6.0825899299183209e-02 -2.8677656744099805e-02 0.0000000000000000e+00  4.1982208517572376e-03 8.4548961137146564e-02 0.0000000000000000e+00  -1.3433452693201097e-02 2.1053059061046708e-01 0.0000000000000000e+00  9.5228886396547821e-02 2.3337963864537456e-01 0.0000000000000000e+00  -1.2889769585036262e-01 5.9177571662816852e-01 0.0000000000000000e+00  -2.7507662072212041e-01 1.1363801910064244e+00 0.0000000000000000e+00  -2.4398535778873784e-01 7.5799734670592478e-01 0.0000000000000000e+00  -2.7893986791778097e-03 -5.1466394464044540e-01 0.0000000000000000e+00  -1.0676264370976126e-02 2.6869711587412426e-01 0.0000000000000000e+00  7.2129915873551274e-03 3.1589207680190395e-01 0.0000000000000000e+00  -2.0384957867646075e-05 4.9709613012736192e-01 0.0000000000000000e+00  -9.8441551350575682e-02 -3.7552570045029476e-01 0.0000000000000000e+00  2.6667650761629726e-02 5.4928398620275154e-01 0.0000000000000000e+00  2.3918166841443590e-02 -1.5038522963159823e-01 0.0000000000000000e+00  1.2722720770633794e-01 5.0097465587528200e-01 0.0000000000000000e+00  4.6603675343275331e-03 1.0948718203380359e-01 0.0000000000000000e+00  -3.8229771998789296e-04 1.8945348507795046e-01 0.0000000000000000e+00  -2.7203701675599473e-01 5.7242179556851180e-01 0.0000000000000000e+00  3.9251872043864532e-03 2.6599312639133460e-01 0.0000000000000000e+00  -1.7494262278271194e-01 6.0625374215806604e-01 0.0000000000000000e+00  -3.4406164927848551e-03 2.2831223560422836e-01 0.0000000000000000e+00  -3.5919302678418539e-03 2.7000570960508474e-01 0.0000000000000000e+00  5.0528893216392104e-02 5.6760191244465186e-01 0.0000000000000000e+00  2.7607445417978982e-01 5.4819336500927662e-01 0.0000000000000000e+00  -1.7581563334945916e-02 2.8756003365505683e-01 0.0000000000000000e+00  -3.5005379380990222e-02 5.1054858542620740e-01 0.0000000000000000e+00  -1.4771397517152052e-03 3.1014269224543489e-01 0.0000000000000000e+00  -1.5744719132903848e-02 4.3117936995534140e-01 0.0000000000000000e+00  1.3047522367217908e-02 2.9528892605072360e-01 0.0000000000000000e+00  9.6248146766407395e-05 2.1834001816797668e-01 0.0000000000000000e+00  -1.1931882404714898e-02 3.3436572394086955e-01 0.0000000000000000e+00  2.2788538268999682e-03 1.6641581228664132e-02 0.0000000000000000e+00  -1.0441454650244965e-02 2.2720117738919796e-01 0.0000000000000000e+00  -1.3148426199407198e-01 -4.9737133838997827e-01 0.0000000000000000e+00  2.0748750576032940e-02 3.7354828584368516e-01 0.0000000000000000e+00  -3.8444501557368040e-02 4.0581501316469581e-01 0.0000000000000000e+00  1.3940789642872724e-02 -1.7103895113188378e-01 0.0000000000000000e+00  2.2867440868971217e-02 1.1436911914840633e-01 0.0000000000000000e+00  3.0151131231956885e-02 3.1905529028253410e-01 0.0000000000000000e+00  -5.2606444217290937e-02 2.8807865464954141e-01 0.0000000000000000e+00  -8.5868774577273019e-03 1.9098471686606797e-01 0.0000000000000000e+00  -9.7173478871656910e-03 4.6307434801022940e-01 0.0000000000000000e+00  2.0770126871801690e-02 1.4952293237300660e-01 0.0000000000000000e+00  6.2835900899412397e-03 1.9903450477588297e-01 0.0000000000000000e+00  2.7398890286764944e-02 3.8749695510076149e-01 0.0000000000000000e+00  2.5627292787431819e-03 5.7622933364791107e-01 0.0000000000000000e+00  2.8981737594090673e-02 2.3365828518512113e-01 0.0000000000000000e+00  1.0633958937238189e-02 3.1703519118702206e-01 0.0000000000000000e+00  -4.2769823895577271e-02 -4.4521488218933880e-01 0.0000000000000000e+00  2.3184438785847244e-01 -3.6209755418604783e-01 0.0000000000000000e+00  -1.8790367410405479e-01 2.2402129864210957e-01 0.0000000000000000e+00  8.8522109699739598e-03 -4.8286476921859528e-01 0.00000