<?xml version="1.0"?>
<VTKFile type="UnstructuredGrid"  version="0.1"  >
<UnstructuredGrid>
<Piece  NumberOfPoints="1419" NumberOfCells="2698">
<Points>
<DataArray  type="Float64"  NumberOfComponents="3"  format="ascii">-2.282209091484436e-11 -3.239902495271852e-08 0  7.224316513516432e-11 0.4099999674878185 0  2.500000000044607 -4.791088210266253e-08 0  2.500000000044607 0.4099999520891184 0  0.6000000002181957 0.1899999497398319 0  0.599999999866789 0.2099999499281639 0  0.25 0.2 0  0.1500000000233629 0.1999999678194608 0  0.2489897948556636 0.21 0  0.2489897948556636 0.19 0  0.6000000000588961 0.1999999494120488 0  7.122360772295966e-11 0.380714253210837 0  6.83067210868871e-11 0.3514285389487603 0  6.335179518991383e-11 0.3221428246980006 0  5.627856740702913e-11 0.2928571104507944 0  4.74096025168628e-11 0.263571396201257 0  3.706932178598913e-11 0.2342856819454572 0  2.566079201788284e-11 0.2049999676775312 0  1.416468145658594e-11 0.175714253398468 0  3.445073574876414e-12 0.1464285391074941 0  -5.942195506201952e-12 0.1171428248069426 0  -1.325301136787404e-11 0.0878571105005411 0  -1.863078764923931e-11 0.05857139619368054 0  -2.181118300051125e-11 0.02928568189221241 0  0.03015443758046471 -3.240513690296062e-08 0  0.06140001983846964 -3.242720685745736e-08 0  0.09377624073786776 -3.247692869169421e-08 0  0.1273239957116981 -3.257464901415601e-08 0  0.1620856859832561 -3.275685629158557e-08 0  0.1981052432642695 -3.311314357019662e-08 0  0.2354281840224108 -3.377768813051697e-08 0  0.2741016575621085 -3.483868180511105e-08 0  0.3141745520880204 -3.631367222758544e-08 0  0.3556974925953006 -3.816447470810516e-08 0  0.3987229542485805 -4.019432859652893e-08 0  0.4433053055576296 -4.22040765605394e-08 0  0.489500876013657 -4.40439346190451e-08 0  0.5373680610555078 -4.555139159399877e-08 0  0.5869673344475246 -4.662928414867943e-08 0  0.638361367783205 -4.731962272242511e-08 0  0.6916151139502752 -4.767383728679476e-08 0  0.746795859651311 -4.78324124219595e-08 0  0.8039733464644474 -4.789752262538183e-08 0  0.8632198140128229 -4.79191592652147e-08 0  0.9246101327425428 -4.792292737156736e-08 0  0.9882218811450375 -4.792073796295219e-08 0  1.05413544560728 -4.79178662741334e-08 0  1.122434100589721 -4.791540983985382e-08 0  1.193204177187359 -4.791361563762672e-08 0  1.266535089924956 -4.791246572393689e-08 0  1.342519516091469 -4.791178685124612e-08 0  1.421253448548798 -4.791138418959183e-08 0  1.502836389151011 -4.791114769284928e-08 0  1.587371439803514 -4.791102023814747e-08 0  1.674965418822016 -4.791095274789414e-08 0  1.765729001870168 -4.791091681945001e-08 0  1.859776908924697 -4.791089915404133e-08 0  1.957227977531673 -4.791088989033526e-08 0  2.058205329914552 -4.791088567284523e-08 0  2.162836591234559 -4.79108835204076e-08 0  2.271253957335472 -4.791088260831444e-08 0  2.383594446848032 -4.791088221796805e-08 0  2.500000000044607 0.1024999520888792 0  2.500000000044607 0.2049999520885925 0  2.500000000044607 0.3074999520888366 0  2.383594446848262 0.4099999520891185 0  2.271253957335921 0.4099999520891189 0  2.162836591235204 0.4099999520891199 0  2.05820532991538 0.4099999520891219 0  1.95722797753267 0.4099999520891261 0  1.859776908925844 0.4099999520891358 0  1.765729001871443 0.4099999520891534 0  1.674965418823389 0.4099999520891908 0  1.587371439804947 0.4099999520892585 0  1.50283638915243 0.4099999520893876 0  1.421253448550078 0.4099999520896371 0  1.342519516092433 0.4099999520900615 0  1.266535089925302 0.4099999520908044 0  1.193204177186518 0.4099999520922069 0  1.122434100586814 0.4099999520947298 0  1.054135445601128 0.4099999520989646 0  0.9882218811332937 0.4099999521074042 0  0.9246101327220052 0.4099999521229857 0  0.8632198139787826 0.4099999521529735 0  0.8039733464107398 0.4099999522131273 0  0.7467958595702169 0.4099999523337299 0  0.6916151138358273 0.4099999525670298 0  0.6383613676370776 0.4099999530124688 0  0.5869673342879289 0.4099999537531809 0  0.5373680609134034 0.4099999548502812 0  0.4895008759243055 0.4099999563285721 0  0.4433053055416059 0.4099999580777114 0  0.3987229543079842 0.4099999599693928 0  0.3556974927183825 0.409999961860171 0  0.3141745522540332 0.4099999635836636 0  0.2741016577466428 0.4099999649952683 0  0.2354281842061986 0.409999966002119 0  0.1981052434344832 0.409999966661007 0  0.1620856861340498 0.4099999670461853 0  0.1273239958431144 0.4099999672601517 0  0.09377624085319368 0.409999967382998 0  0.06140001994229781 0.4099999674466138 0  0.03015443767752764 0.4099999674795955 0  0.2497468076502589 0.2050254481002335 0  0.2497468076502614 0.1949745518997913 0  0.2469965250991457 0.1829316909068036 0  0.2439893734086562 0.1762316164029243 0  0.2400332146186711 0.1700443123305956 0  0.2352133971185683 0.1645032595701468 0  0.2296339014957562 0.1597279976482261 0  0.2234150972985679 0.1558215457238096 0  0.2166911462342578 0.1528681797006022 0  0.2096071078235281 0.1509316140914123 0  0.2023158099518283 0.1500536274051359 0  0.1949745518265102 0.1502531609210579 0  0.187741710476283 0.1515259099419146 0  0.1807733239938623 0.1538444167344422 0  0.1742197252414223 0.157158662841981 0  0.1682222986348205 0.1613971481900031 0  0.1629104299808996 0.1664684335722035 0  0.1583987151643153 0.1722631133363326 0  0.1547844879084653 0.1786561756391384 0  0.1521457199397724 0.1855096994044521 0  0.1505393388618745 0.1926758297645113 0  0.1505393388801949 0.2073241058813548 0  0.1521457199766177 0.2144902362631521 0  0.1547844879635056 0.2213437600661579 0  0.1583987152379639 0.2277368224273625 0  0.1629104300730121 0.2335315022743437 0  0.1682222987460195 0.2386027877761158 0  0.1742197253716643 0.2428412732850034 0  0.1807733241439291 0.2461555196157282 0  0.1877417106467497 0.2484740267150938 0  0.1949745520182826 0.2497467761588162 0  0.2023158101656476 0.2499463102338606 0  0.2096071080611482 0.2490683243285101 0  0.2166911464964734 0.2471317597481804 0  0.2234150975872253 0.24417839516546 0  0.2296339018116344 0.2402719452016719 0  0.2352133974613377 0.2354966860703549 0  0.2400332149842742 0.2299556372520214 0  0.2439893737813836 0.2237683395255719 0  0.2469965254297732 0.2170682761994563 0  0.2564580973518398 0.2099999833895368 0  0.2639263996791858 0.2099999777690041 0  0.2713947018831966 0.209999974334813 0  0.2788630042155892 0.2099999719440227 0  0.2863313063973818 0.2099999700852294 0  0.2937996086974868 0.2099999685587533 0  0.3012679108862557 0.2099999671766756 0  0.3087362130637314 0.2099999661879393 0  0.3162045153361889 0.2099999652408269 0  0.3236728175088248 0.2099999643699763 0  0.3311411197808465 0.2099999635815679 0  0.3386094219536659 0.2099999628518316 0  0.3460777242086323 0.2099999621578733 0  0.3535460263989634 0.2099999614355887 0  0.3610143286004682 0.2099999609033889 0  0.3684826308556892 0.2099999603383999 0  0.3759509330409352 0.2099999597834763 0  0.3834192352978977 0.2099999592498897 0  0.3908875374838504 0.2099999587365434 0  0.3983558397439723 0.2099999582446857 0  0.4058241419260025 0.2099999577586711 0  0.4132924441797106 0.2099999572701554 0  0.4207607463685693 0.2099999567291561 0  0.4282290485701842 0.2099999563500964 0  0.4356973508212518 0.2099999559241457 0  0.4431656530136711 0.2099999554860515 0  0.4506339552663887 0.2099999550463931 0  0.4581022574500246 0.2099999546136561 0  0.4655705597045601 0.2099999541828568 0  0.4730388618817442 0.2099999537578608 0  0.4805071641394967 0.2099999533337247 0  0.4879754663142821 0.2099999529093368 0  0.4954437685724093 0.2099999524931063 0  0.5029120707283218 0.2099999520832109 0  0.5103803729883233 0.2099999516686539 0  0.5178486751479819 0.2099999512684218 0  0.5253169774423757 0.2099999508685647 0  0.5327852795805084 0.2099999504783688 0  0.5402535818571441 0.2099999500975886 0  0.5477218839787342 0.2099999497320865 0  0.5551901862689264 0.2099999493207679 0  0.5626584883974655 0.2099999487855682 0  0.5701267905366871 0.2099999488503159 0  0.5775950929454166 0.2099999488256279 0  0.5850633950575788 0.2099999489525438 0  0.5925316974608764 0.2099999494227176 0  0.6000000000189785 0.2049999496300771 0  0.6000000000664822 0.1949999496082108 0  0.592531698198391 0.1899999490256807 0  0.5850633961232363 0.1899999485449676 0  0.5775950937412584 0.1899999483891167 0  0.5701267916512877 0.1899999484206043 0  0.5626584893265811 0.1899999483560984 0  0.5551901869875512 0.189999948873273 0  0.5477218848169553 0.1899999492356683 0  0.5402535824560607 0.1899999495788046 0  0.5327852802823884 0.1899999499479043 0  0.5253169779291152 0.189999950332473 0  0.5178486757245448 0.1899999507357088 0  0.510380373387252 0.1899999511497513 0  0.5029120711915156 0.1899999515770701 0  0.4954437688717669 0.1899999520050105 0  0.4879754666698545 0.1899999524362764 0  0.4805071643531652 0.1899999528715251 0  0.4730388621340401 0.1899999533134472 0  0.4655705598239753 0.1899999537612656 0  0.4581022576132437 0.189999954216068 0  0.450633955313433 0.1899999546749972 0  0.443165653099629 0.1899999551404716 0  0.4356973507983422 0.1899999556111788 0  0.4282290485712404 0.1899999560784729 0  0.4207607462851968 0.1899999564944287 0  0.4132924440093917 0.1899999570702726 0  0.4058241417907584 0.1899999576017366 0  0.3983558395089819 0.1899999581168937 0  0.3908875372852179 0.1899999586439219 0  0.3834192350019008 0.1899999591819451 0  0.3759509327752945 0.1899999597342988 0  0.3684826304947701 0.1899999603058514 0  0.3610143282767074 0.189999960875086 0  0.3535460260001458 0.1899999614185863 0  0.3460777237121704 0.1899999621599515 0  0.3386094214925739 0.1899999628838559 0  0.3311411191998773 0.1899999636280866 0  0.323672816994667 0.1899999644258332 0  0.3162045147003988 0.1899999652980628 0  0.3087362124961024 0.1899999662332754 0  0.3012679101945619 0.1899999672140456 0  0.2937996079066698 0.1899999685937095 0  0.2863313057313135 0.1899999701317011 0  0.2788630034385509 0.1899999719863143 0  0.2713947012905821 0.1899999743514378 0  0.2639263990115437 0.1899999777826339 0  0.256458096854345
[...]
<PointData  Vectors="f_30-0"> 
<DataArray  type="Float64"  Name="f_30-0"  NumberOfComponents="3" format="ascii">0.0000000000000000e+00 0.0000000000000000e+00 0.0000000000000000e+00  0.0000000000000000e+00 0.0000000000000000e+00 0.0000000000000000e+00  0.0000000000000000e+00 0.0000000000000000e+00 0.0000000000000000e+00  0.0000000000000000e+00 0.0000000000000000e+00 0.0000000000000000e+00  4.6416593122595795e-03 -3.2421950802912409e-03 0.0000000000000000e+00  -4.4048013494565946e-03 -2.7017241719129704e-03 0.0000000000000000e+00  0.0000000000000000e+00 0.0000000000000000e+00 0.0000000000000000e+00  0.0000000000000000e+00 0.0000000000000000e+00 0.0000000000000000e+00  0.0000000000000000e+00 0.0000000000000000e+00 0.0000000000000000e+00  0.0000000000000000e+00 0.0000000000000000e+00 0.0000000000000000e+00  1.3381430676407044e-03 -1.0891319631648159e-02 0.0000000000000000e+00  0.0000000000000000e+00 0.0000000000000000e+00 0.0000000000000000e+00  0.0000000000000000e+00 0.0000000000000000e+00 0.0000000000000000e+00  0.0000000000000000e+00 0.0000000000000000e+00 0.0000000000000000e+00  0.0000000000000000e+00 0.0000000000000000e+00 0.0000000000000000e+00  0.0000000000000000e+00 0.0000000000000000e+00 0.0000000000000000e+00  0.0000000000000000e+00 0.0000000000000000e+00 0.0000000000000000e+00  0.0000000000000000e+00 0.0000000000000000e+00 0.0000000000000000e+00  0.0000000000000000e+00 0.0000000000000000e+00 0.0000000000000000e+00  0.0000000000000000e+00 0.0000000000000000e+00 0.0000000000000000e+00  0.0000000000000000e+00 0.0000000000000000e+00 0.0000000000000000e+00  0.0000000000000000e+00 0.0000000000000000e+00 0.0000000000000000e+00  0.0000000000000000e+00 0.0000000000000000e+00 0.0000000000000000e+00  0.0000000000000000e+00 0.0000000000000000e+00 0.0000000000000000e+00  0.0000000000000000e+00 0.0000000000000000e+00 0.0000000000000000e+00  0.0000000000000000e+00 0.0000000000000000e+00 0.0000000000000000e+00  0.0000000000000000e+00 0.0000000000000000e+00 0.0000000000000000e+00  0.0000000000000000e+00 0.0000000000000000e+00 0.0000000000000000e+00  0.0000000000000000e+00 0.0000000000000000e+00 0.0000000000000000e+00  0.0000000000000000e+00 0.0000000000000000e+00 0.0000000000000000e+00  0.0000000000000000e+00 0.0000000000000000e+00 0.0000000000000000e+00  0.0000000000000000e+00 0.0000000000000000e+00 0.0000000000000000e+00  0.0000000000000000e+00 0.0000000000000000e+00 0.0000000000000000e+00  0.0000000000000000e+00 0.0000000000000000e+00 0.0000000000000000e+00  0.0000000000000000e+00 0.0000000000000000e+00 0.0000000000000000e+00  0.0000000000000000e+00 0.0000000000000000e+00 0.0000000000000000e+00  0.0000000000000000e+00 0.0000000000000000e+00 0.0000000000000000e+00  0.0000000000000000e+00 0.0000000000000000e+00 0.0000000000000000e+00  0.0000000000000000e+00 0.0000000000000000e+00 0.0000000000000000e+00  0.0000000000000000e+00 0.0000000000000000e+00 0.0000000000000000e+00  0.0000000000000000e+00 0.0000000000000000e+00 0.0000000000000000e+00  0.0000000000000000e+00 0.0000000000000000e+00 0.0000000000000000e+00  0.0000000000000000e+00 0.0000000000000000e+00 0.0000000000000000e+00  0.0000000000000000e+00 0.0000000000000000e+00 0.0000000000000000e+00  0.0000000000000000e+00 0.0000000000000000e+00 0.0000000000000000e+00  0.0000000000000000e+00 0.0000000000000000e+00 0.0000000000000000e+00  0.0000000000000000e+00 0.0000000000000000e+00 0.0000000000000000e+00  0.0000000000000000e+00 0.0000000000000000e+00 0.0000000000000000e+00  0.0000000000000000e+00 0.0000000000000000e+00 0.0000000000000000e+00  0.0000000000000000e+00 0.0000000000000000e+00 0.0000000000000000e+00  0.0000000000000000e+00 0.0000000000000000e+00 0.0000000000000000e+00  0.0000000000000000e+00 0.0000000000000000e+00 0.0000000000000000e+00  0.0000000000000000e+00 0.0000000000000000e+00 0.0000000000000000e+00  0.0000000000000000e+00 0.0000000000000000e+00 0.0000000000000000e+00  0.0000000000000000e+00 0.0000000000000000e+00 0.0000000000000000e+00  0.0000000000000000e+00 0.0000000000000000e+00 0.0000000000000000e+00  0.0000000000000000e+00 0.0000000000000000e+00 0.0000000000000000e+00  0.0000000000000000e+00 0.0000000000000000e+00 0.0000000000000000e+00  0.0000000000000000e+00 0.0000000000000000e+00 0.0000000000000000e+00  0.0000000000000000e+00 0.0000000000000000e+00 0.0000000000000000e+00  0.0000000000000000e+00 0.0000000000000000e+00 0.0000000000000000e+00  0.0000000000000000e+00 0.0000000000000000e+00 0.0000000000000000e+00  2.7397429227699772e-10 1.5458116287394006e-10 0.0000000000000000e+00  7.9180720230728287e-12 1.9149040628926652e-10 0.0000000000000000e+00  -3.8182164266415307e-10 1.4970250737814269e-10 0.0000000000000000e+00  0.0000000000000000e+00 0.0000000000000000e+00 0.0000000000000000e+00  0.0000000000000000e+00 0.0000000000000000e+00 0.0000000000000000e+00  0.0000000000000000e+00 0.0000000000000000e+00 0.0000000000000000e+00  0.0000000000000000e+00 0.0000000000000000e+00 0.0000000000000000e+00  0.0000000000000000e+00 0.0000000000000000e+00 0.0000000000000000e+00  0.0000000000000000e+00 0.0000000000000000e+00 0.0000000000000000e+00  0.0000000000000000e+00 0.0000000000000000e+00 0.0000000000000000e+00  0.0000000000000000e+00 0.0000000000000000e+00 0.0000000000000000e+00  0.0000000000000000e+00 0.0000000000000000e+00 0.0000000000000000e+00  0.0000000000000000e+00 0.0000000000000000e+00 0.0000000000000000e+00  0.0000000000000000e+00 0.0000000000000000e+00 0.0000000000000000e+00  0.0000000000000000e+00 0.0000000000000000e+00 0.0000000000000000e+00  0.0000000000000000e+00 0.0000000000000000e+00 0.0000000000000000e+00  0.0000000000000000e+00 0.0000000000000000e+00 0.0000000000000000e+00  0.0000000000000000e+00 0.0000000000000000e+00 0.0000000000000000e+00  0.0000000000000000e+00 0.0000000000000000e+00 0.0000000000000000e+00  0.0000000000000000e+00 0.0000000000000000e+00 0.0000000000000000e+00  0.0000000000000000e+00 0.0000000000000000e+00 0.0000000000000000e+00  0.0000000000000000e+00 0.0000000000000000e+00 0.0000000000000000e+00  0.0000000000000000e+00 0.0000000000000000e+00 0.0000000000000000e+00  0.0000000000000000e+00 0.0000000000000000e+00 0.0000000000000000e+00  0.0000000000000000e+00 0.0000000000000000e+00 0.0000000000000000e+00  0.0000000000000000e+00 0.0000000000000000e+00 0.0000000000000000e+00  0.0000000000000000e+00 0.0000000000000000e+00 0.0000000000000000e+00  0.0000000000000000e+00 0.0000000000000000e+00 0.0000000000000000e+00  0.0000000000000000e+00 0.0000000000000000e+00 0.0000000000000000e+00  0.0000000000000000e+00 0.0000000000000000e+00 0.0000000000000000e+00  0.0000000000000000e+00 0.0000000000000000e+00 0.0000000000000000e+00  0.0000000000000000e+00 0.0000000000000000e+00 0.0000000000000000e+00  0.0000000000000000e+00 0.0000000000000000e+00 0.0000000000000000e+00  0.0000000000000000e+00 0.0000000000000000e+00 0.0000000000000000e+00  0.0000000000000000e+00 0.0000000000000000e+00 0.0000000000000000e+00  0.0000000000000000e+00 0.0000000000000000e+00 0.0000000000000000e+00  0.0000000000000000e+00 0.0000000000000000e+00 0.0000000000000000e+00  0.0000000000000000e+00 0.0000000000000000e+00 0.0000000000000000e+00  0.0000000000000000e+00 0.0000000000000000e+00 0.0000000000000000e+00  0.0000000000000000e+00 0.0000000000000000e+00 0.0000000000000000e+00  0.0000000000000000e+00 0.0000000000000000e+00 0.0000000000000000e+00  0.0000000000000000e+00 0.0000000000000000e+00 0.0000000000000000e+00  0.0000000000000000e+00 0.0000000000000000e+00 0.0000000000000000e+00  0.0000000000000000e+00 0.0000000000000000e+00 0.0000000000000000e+00  0.0000000000000000e+00 0.0000000000000000e+00 0.0000000000000000e+00  0.0000000000000000e+00 0.0000000000000000e+00 0.0000000000000000e+00  0.0000000000000000e+00 0.0000000000000000e+00 0.0000000000000000e+00  0.0000000000000000e+00 0.0000000000000000e+00 0.0000000000000000e+00  0.0000000000000000e+00 0.0000000000000000e+00 0.0000000000000000e+00  0.0000000000000000e+00 0.0000000000000000e+00 0.0000000000000000e+00  0.0000000000000000e+00 0.0000000000000000e+00 0.0000000000000000e+00  0.0000000000000000e+00 0.0000000000000000e+00 0.0000000000000000e+00  0.0000000000000000e+00 0.0000000000000000e+00 0.0000000000000000e+00  0.0000000000000000e+00 0.0000000000000000e+00 0.0000000000000000e+00  0.0000000000000000e+00 0.0000000000000000e+00 0.0000000000000000e+00  0.0000000000000000e+00 0.0000000000000000e+00 0.0000000000000000e+00  0.0000000000000000e+00 0.0000000000000000e+00 0.0000000000000000e+00  0.0000000000000000e+00 0.0000000000000000e+00 0.0000000000000000e+00  0.0000000000000000e+00 0.0000000000000000e+00 0.0000000000000000e+00  0.0000000000000000e+00 0.0000000000000000e+00 0.0000000000000000e+00  0.0000000000000000e+00 0.0000000000000000e+00 0.0000000000000000e+00  0.0000000000000000e+00 0.0000000000000000e+00 0.0000000000000000e+00  0.0000000000000000e+00 0.0000000000000000e+00 0.0000000000000000e+00  0.0000000000000000e+00 0.0000000000000000e+00 0.0000000000000000e+00  0.0000000000000000e+00 0.0000000000000000e+00 0.0000000000000000e+00  0.0000000000000000e+00 0.0000000000000000e+00 0.0000000000000000e+00  0.0000000000000000e+00 0.0000000000000000e+00 0.0000000000000000e+00  0.0000000000000000e+00 0.0000000000000000e+00 0.0000000000000000e+00  0.0000000000000000e+00 0.0000000000000000e+00 0.0000000000000000e+00  0.0000000000000000e+00 0.0000000000000000e+00 0.0000000000000000e+00  0.0000000000000000e+00 0.0000000000000000e+00 0.0000000000000000e+00  0.0000000000000000e+00 0.0000000000000000e+00 0.0000000000000000e+00  0.0000000000000000e+00 0.0000000000000000e+00 0.0000000000000000e+00  0.0000000000000000e+00 0.0000000000000000e+00 0.0000000000000000e+00  0.0000000000000000e+00 0.0000000000000000e+00 0.0000000000000000e+00  0.0000000000000000e+00 0.0000000000000000e+00 0.0000000000000000e+00  0.0000000000000000e+00 0.0000000000000000e+00 0.0000000000000000e+00  0.0000000000000000e+00 0.0000000000000000e+00 0.0000000000000000e+00  0.0000000000000000e+00 0.0000000000000000e+00 0.0000000000000000e+00  0.0000000000000000e+00 0.0000000000000000e+00 0.0000000000000000e+00  0.0000000000000000e+00 0.0000000000000000e+00 0.0000000000000000e+00  2.6053671320524358e-03 -2.4426083163022177e-03 0.0000000000000000e+00  1.7097850446941346e-03 -7.3341945585509655e-03 0.0000000000000000e+00  1.4478178831150754e-04 -8.5326036257474501e-03 0.0000000000000000e+00  1.4924081204927642e-03 -8.5359422711658930e-03 0.0000000000000000e+00  -4.3429906416272199e-05 -8.0425685634301566e-03 0.0000000000000000e+00  1.0920010031863971e-03 -8.0963815190050019e-03 0.0000000000000000e+00  3.4084614422929036e-04 -6.3231840772547156e-03 0.0000000000000000e+00  -3.9827591559770146e-04 -7.0825477296473580e-03 0.0000000000000000e+00  9.0835118638696755e-04 -6.3545845397027720e-03 0.0000000000000000e+00  -3.9290020828497733e-04 -6.3148026243681696e-03 0.0000000000000000e+00  7.6139160756105988e-04 -5.9914754196851491e-03 0.0000000000000000e+00  -3.4033055891738412e-04 -5.7456900810895399e-03 0.0000000000000000e+00  7.9560526187951190e-04 -5.6551607105815929e-03 0.0000000000000000e+00  -3.0074588205798346e-05 -4.4983400431537618e-03 0.0000000000000000e+00  -8.6373053623028118e-05 -5.1892119624490007e-03 0.0000000000000000e+00  2.7832965191327956e-04 -4.9709966606447898e-03 0.0000000000000000e+00  -1.2064060597073489e-04 -5.0815141783408565e-03 0.0000000000000000e+00  3.5954757360616077e-04 -4.9540167873587844e-03 0.0000000000000000e+00  -2.1177876177350165e-04 -4.9774198524393390e-03 0.0000000000000000e+00  4.9044534335126479e-04 -5.0390018481137801e-03 0.0000000000000000e+00  -3.7044028387263355e-04 -5.0372578604480538e-03 0.0000000000000000e+00  7.0987581342403419e-04 -5.0019652393826488e-03 0.0000000000000000e+00  -1.4793807510839077e-04 -4.1171293939834871e-03 0.0000000000000000e+00  -2.6225132019998547e-04 -5.0995739625975438e-03 0.0000000000000000e+00  2.5745378145563814e-04 -5.4914309239901668e-03 0.0000000000000000e+00  -1.4289928278499964e-04 -5.6008020059965117e-03 0.0000000000000000e+00  3.0125384860938911e-04 -5.9151767895502267e-03 0.0000000000000000e+00  -4.4721260583400411e-04 -6.2381639388044254e-03 0.0000000000000000e+00  6.2663832258045042e-04 -6.4513473644798409e-03 0.0000000000000000e+00  -7.1433295304725811e-04 -6.6609620153100712e-03 0.0000000000000000e+00  7.7240515903787205e-04 -7.0939727905042858e-03 0.0000000000000000e+00  -6.3512701349864565e-04 -7.3394564982397327e-03 0.0000000000000000e+00  5.9018054803892071e-04 -8.1553707973183506e-03 0.0000000000000000e+00  -7.2721375889290847e-04 -8.4849607780125638e-03 0.0000000000000000e+00  6.7927678531919350e-04 -9.0344893012210652e-03 0.0000000000000000e+00  -1.0305253329602124e-03 -9.3012779467356223e-03 0.0000000000000000e+00  9.8584340204970183e-04 -1.0251924492204006e-02 0.0000000000000000e+00  -1.3923625712493927e-03 -1.1150090747540376e-02 0.0000000000000000e+00  1.1657893886572624e-03 -1.2532457242278168e-02 0.0000000000000000e+00  -1.4947695738743380e-03 -1.2932629884483541e-02 0.0000000000000000e+00  7.4132734366104598e-04 -1.4611249801696039e-02 0.0000000000000000e+00  3.5910999465522226e-04 -1.3232294335836363e-02 0.0000000000000000e+00  -2.8389698234163527e-03 -1.8008731065039162e-02 0.0000000000000000e+00  8.8443824679060930e-04 -2.0117201705776654e-02 0.0000000000000000e+00  -3.5755263945665824e-03 -2.2241677531946155e-02 0.0000000000000000e+00  -8.8396132595858332e-04 -1.8479519684296508e-02 0.0000000000000000e+00  -1.0038990643485841e-03 -8.8918924093872084e-03 0.0000000000000000e+00  9.1355365622922602e-04 -7.3181203182716200e-03 0.0000000000000000e+00  2.1060825003601544e-03 -1.8225952572181351e-02 0.0000000000000000e+00  3.0717133582992494e-03 -2.1500051479212454e-02 0.0000000000000000e+00  -5.5566657091744203e-04 -2.0148025272202500e-02 0.0000000000000000e+00  2.5824584533654799e-03 -1.8518348564390469e-02 0.0000000000000000e+00  5.4330642984453160e-05 -1.3079363932418006e-02 0.0000000000000000e+00  -9.8806759252248271e-04 -1.4423509775582759e-02 0.0000000000000000e+00  1.5534126275548480e-03 -1.2094118989579294e-02 0.0000000000000000e+00  -1.0489509304520471e-03 -1.1664735807830581e-02 0.0000000000000000e+00  1.2110277868138677e-03 -1.0698549390121121e-02 0.0000000000000000e+00  -8.2297380261284853e-04 -1.0311306868482494e-02 0.0000000000000000e+00  9.3376120853662055e-04 -9.2551664167999873e-03 0.0000000000000000e+00  -7.8965294175027331e-04 -8.7251572338545007e-03 0.0000000000000000e+00  8.0536573843248231e-04 -7.6783274913016161e-03 0.0000000000000000e+00  -7.3751945710007812e-04 -7.3621515163787132e-03 0.0000000000000000e+00  6.7128623481972486e-04 -6.9833549488046917e-03 0.0000000000000000e+00  -6.3333334192450404e-04 -6.8320520501833851e-03 0.0000000000000000e+00  5.5977207867602516e-04 -6.4130320169919998e-03 0.0000000000000000e+00  -5.9929387484889633e-04 -6.1651366150255365e-03 0.0000000000000000e+00  5.1830361384158565e-04 -5.6991183910606435e-03 0.0000000000000000e+00  -6.0397833889537782e-04 -5.5572387311939291e-03 0.0000000000000000e+00  4.3764876865956998e-04 -5.3737531104916152e-03 0.0000000000000000e+00  -5.3434164179269345e-04 -5.2132271710433938e-03 0.0000000000000000e+00  4.4395544397422631e-04 -5.1321259145462976e-03 0.0000000000000000e+00  -1.8534564305428455e-04 -4.2052070487504385e-03 0.0000000000000000e+00  -4.1724323408338828e-04 -4.9972194857385603e-03 0.0000000000000000e+00  1.1113478305856771e-04 -4.9666391910818094e-03 0.0000000000000000e+00  -4.2575668162509730e-04 -5.1939173819234704e-03 0.0000000000000000e+00  1.7371013940804906e-04 -5.3520489490065208e-03 0.0000000000000000e+00  -4.1820608285908143e-04 -5.3878606935057445e-03 0.0000000000000000e+00  1.6611367365661428e-04 -5.3663545655026354e-03 0.0000000000000000e+00  -3.5121487301575824e-04 -5.2283379822980593e-03 0.0000000000000000e+00  1.3881560311947589e-04 -5.1662825731131727e-03 0.0000000000000000e+00  1.4667365775244142e-05 -4.5088928690583873e-03 0.0000000000000000e+00  -8.6023583950613908e-04 -5.6793498476594784e-03 0.0000000000000000e+00  3.7052626346062363e-04 -5.9406569447152868e-03 0.0000000000000000e+00  -9.2078862735791678e-04 -6.2255711296772881e-03 0.0000000000000000e+00  5.0449270996269534e-04 -6.5773774708618249e-03 0.0000000000000000e+00  -1.0213350694258890e-03 -6.6909088840743135e-03 0.0000000000000000e+00  4.5511380163232957e-04 -7.0472071353789283e-03 0.0000000000000000e+00  -3.5221019383152368e-04 -6.3392602208184002e-03 0.0000000000000000e+00  -1.0530727445473924e-03 -8.1182343508152278e-03 0.0000000000000000e+00  1.1840498541084166e-04 -8.1544059697553125e-03 0.0000000000000000e+00  -1.5994233624912829e-03 -8.7297212622602510e-03 0.0000000000000000e+00  -1.8203350270619331e-04 -8.3400501937574787e-03 0.0000000000000000e+00  -1.6478101253434030e-03 -7.1950789116733320e-03 0.0000000000000000e+00  -2.6146202628905706e-03 -2.4253241957951721e-03 0.0000000000000000e+00  -2.8212091810404270e-05 5.0528721962057269e-03 0.0000000000000000e+00  3.9838549533318952e-04 1.4768711649301269e-02 0.0000000000000000e+00  -3.6024733117261083e-04 1.4964695633951008e-02 0.0000000000000000e+00  3.2791566280511843e-04 1.1036052352996990e-02 0.0000000000000000e+00  1.2968914302068245e-04 7.2185088091191269e-03 0.0000000000000000e+00  1.1076058552506672e-05 9.3145868046898440e-03 0.0000000000000000e+00  -7.3834760119196046e-05 6.6580513612753099e-03 0.0000000000000000e+00  3.5199478205692567e-06 7.9851568616626459e-03 0.0000000000000000e+00  1.6073748234914841e-04 5.5352240763281184e-03 0.0000000000000000e+00  5.6227542611627106e-06 5.0972417715090933e-03 0.0000000000000000e+00  4.5404199950371982e-05 6.8417166308423483e-03 0.0000000000000000e+00  1.0695158132347177e-04 4.1552379373197036e-03 0.0000000000000000e+00  2.0009016239760829e-05 5.4041983609680712e-03 0.0000000000000000e+00  -1.0142883403806918e-04 4.4423917122368498e-03 0.0000000000000000e+00  6.2527129162484425e-06 4.1717791083843454e-03 0.0000000000000000e+00  9.7919318028760542e-06 4.9420483905358754e-03 0.0000000000000000e+00  -3.1253854843338525e-05 6.0070724075396171e-03 0.0000000000000000e+00  -6.7805492780380309e-05 4.1391866370263097e-03 0.0000000000000000e+00  1.0260015886594628e-05 4.5282730680517407e-03 0.0000000000000000e+00  -3.2326549965568510e-05 3.9519746584503216e-03 0.0000000000000000e+00  -8.9726985802923045e-05 4.1402499726928008e-03 0.0000000000000000e+00  4.3068320707537128e-05 2.7679181642781005e-03 0.0000000000000000e+00  -2.5022133325487567e-06 2.9029067752650672e-03 0.0000000000000000e+00  1.6593583250958302e-05 9.2505783587714403e-03 0.0000000000000000e+00  1.0381375572561535e-05 4.0601812845648746e-03 0.0000000000000000e+00  -3.5284262507889573e-04 1.2776771495610498e-02 0.0000000000000000e+00  -6.0607241313688639e-04 5.4648493023565616e-03 0.0000000000000000e+00  -4.6202428503649176e-04 5.7180620353365318e-03 0.0000000000000000e+00  -7.7066458748320846e-04 6.9188919425523269e-03 0.0000000000000000e+00  -1.7984681717341013e-04 5.8468095745094623e-03 0.0000000000000000e+00  -2.9153104651635661e-04 3.6436949152468911e-03 0.0000000000000000e+00  -2.2499935492951154e-04 3.8164767524264107e-03 0.0000000000000000e+00  -2.5201988254916746e-04 4.9430027032772699e-03 0.0000000000000000e+00  -1.0931916127041495e-04 2.8543572118425635e-03 0.0000000000000000e+00  -7.8875566459999099e-05 3.4461946863765212e-03 0.0000000000000000e+00  -9.2915320032918569e-05 3.1668599265642812e-03 0.0000000000000000e+00  -1.2164583610329284e-05 2.8896360009402771e-03 0.0000000000000000e+00  -1.0531469132875084e-04 3.2696168969435593e-03 0.0000000000000000e+00  -2.4588310884751744e-04 4.3576799887085236e-03 0.0000000000000000e+00  3.8078513692502188e-05 3.0858850932795620e-03 0.0000000000000000e+00  -4.3381299108626651e-05 2.9011805982912574e-03 0.0000000000000000e+00  7.9059628750220159e-04 2.2332031251063272e-03 0.0000000000000000e+00  -8.4379128031368349e-04 2.3157122295630493e-03 0.0000000000000000e+00  -3.3384583680669800e-03 1.1323734474145206e-02 0.0000000000000000e+00  6.1826979489526350e-04 5.6799391301142971e-03 