<?xml version="1.0"?>
<VTKFile type="UnstructuredGrid"  version="0.1"  >
<UnstructuredGrid>
<Piece  NumberOfPoints="1419" NumberOfCells="2698">
<Points>
<DataArray  type="Float64"  NumberOfComponents="3"  format="ascii">9.564059760068322e-08 -2.376793818027152e-06 0  1.229790716412367e-07 0.4099976128975319 0  2.500000254363338 -3.590307283661374e-06 0  2.500000254363372 0.4099964096927476 0  0.6000002841657114 0.1899962959747915 0  0.6000003164252382 0.2099962937417076 0  0.25 0.2 0  0.1500001077293122 0.1999976410979794 0  0.2489897948556636 0.21 0  0.2489897948556636 0.19 0  0.6000003083450816 0.1999962821295621 0  1.226445693918945e-07 0.3807118993480641 0  1.216956488179365e-07 0.3514261870639539 0  1.201171204140925e-07 0.3221404757438348 0  1.179356551901459e-07 0.2928547647394066 0  1.152747382160986e-07 0.2635690535548367 0  1.122448853063848e-07 0.2342833418589685 0  1.089833436479282e-07 0.2049976291543362 0  1.057466516540652e-07 0.1757119155320948 0  1.027694302391312e-07 0.1464262009038033 0  1.001918964708631e-07 0.1171404854614033 0  9.820624476201477e-08 0.08785476951449105 0  9.675887932422657e-08 0.05856905350859689 0  9.590960042377147e-08 0.0292833379387333 0  0.03015453296006311 -2.377296575937355e-06 0  0.06140011430474954 -2.379115697301703e-06 0  0.09377633364115083 -2.38323080598773e-06 0  0.127324086485764 -2.391352002074072e-06 0  0.1620857743168764 -2.40655550165275e-06 0  0.1981053294568277 -2.436420582121459e-06 0  0.2354282695419273 -2.492394852283473e-06 0  0.2741017451372441 -2.582198545529995e-06 0  0.3141746453637501 -2.707413379198178e-06 0  0.3556975968297921 -2.864158722604561e-06 0  0.3987230743917788 -3.033875631451031e-06 0  0.4433054464678932 -3.196274954852485e-06 0  0.489501041039924 -3.337190807419913e-06 0  0.5373682505946024 -3.444366097986882e-06 0  0.5869675454788805 -3.51480103976217e-06 0  0.6383615954355579 -3.556972738440113e-06 0  0.6916153524742609 -3.577426730619517e-06 0  0.7467961047056857 -3.586287604791353e-06 0  0.8039735954153318 -3.589822052173961e-06 0  0.8632200652107007 -3.590943484393568e-06 0  0.9246103852487246 -3.591090756020065e-06 0  0.9882221343813645 -3.59092755831369e-06 0  1.05413569929987 -3.590739558551832e-06 0  1.12243435453714 -3.590585751184488e-06 0  1.193204431294972 -3.590474739257969e-06 0  1.266535344125962 -3.590404063639785e-06 0  1.342519770344116 -3.590362516316475e-06 0  1.42125370283125 -3.590337914875791e-06 0  1.502836643450676 -3.590323480393791e-06 0  1.587371694112365 -3.590315705863271e-06 0  1.674965673135702 -3.590311590532731e-06 0  1.765729256186421 -3.590309400041727e-06 0  1.859777163242211 -3.590308323107765e-06 0  1.957228231849847 -3.590307758387555e-06 0  2.058205584233028 -3.590307501293729e-06 0  2.162836845553188 -3.590307370084441e-06 0  2.271254211654164 -3.59030731448492e-06 0  2.383594701166753 -3.590307290690169e-06 0  2.500000254363341 0.102496409692482 0  2.500000254363355 0.2049964096922061 0  2.500000254363367 0.3074964096924615 0  2.383594701167037 0.4099964096927545 0  2.271254211654723 0.4099964096927792 0  2.162836845554075 0.4099964096928372 0  2.058205584234397 0.4099964096929624 0  1.957228231851984 0.4099964096932168 0  1.85977716324585 0.4099964096938091 0  1.765729256192702 0.4099964096948827 0  1.674965673147307 0.4099964096971639 0  1.587371694133668 0.4099964097012906 0  1.502836643490246 0.4099964097091516 0  1.421253702905318 0.4099964097243457 0  1.342519770476803 0.4099964097501552 0  1.266535344359362 0.4099964097952772 0  1.193204431708845 0.4099964098801854 0  1.12243435525562 0.40999641003232 0  1.054135700490226 0.4099964102864206 0  0.9882221363712904 0.4099964107885661 0  0.9246103884580633 0.4099964117090469 0  0.8632200703566634 0.4099964134684729 0  0.8039736034697139 0.4099964169840392 0  0.7467961170180671 0.409996424038804 0  0.6916153705577445 0.4099964378209189 0  0.6383616208535625 0.4099964648320135 0  0.586967579762896 0.4099965117811973 0  0.537368293877298 0.4099965854131315 0  0.4895010927937955 0.4099966920618702 0  0.4433055059177006 0.4099968266696922 0  0.3987231397525937 0.4099969794217991 0  0.3556976653554496 0.4099971368648364 0  0.3141747139945227 0.4099972825094391 0  0.2741018101486316 0.4099974021815182 0  0.2354283287923261 0.4099974874153555 0  0.1981053815728984 0.409997543081592 0  0.1620858191612634 0.4099975755845104 0  0.1273241249423328 0.4099975936422842 0  0.09377636706807302 0.4099976040214046 0  0.06140014425990856 0.4099976094054476 0  0.03015456088728392 0.4099976122000578 0  0.2497468076502589 0.2050254481002335 0  0.2497468076502614 0.1949745518997913 0  0.2469965408172594 0.1829305700514596 0  0.2439894028598298 0.1762300907394972 0  0.2400332549944155 0.170042546240029 0  0.2352134461372888 0.1645013399381085 0  0.229633957760537 0.1597259679498418 0  0.2234151596840489 0.1558194367180609 0  0.2166912138648116 0.1528660129001858 0  0.2096071799531056 0.1509294055190247 0  0.2023158862165651 0.1500513865776286 0  0.1949746317280566 0.1502508969962412 0  0.1877417937741567 0.1515236285119159 0  0.1807734103922477 0.1538421226683585 0  0.174219814621274 0.1571563592022325 0  0.1682223908041027 0.1613948376368453 0  0.1629105248994877 0.166466117742655 0  0.1583988127078408 0.1722607936809063 0  0.1547845880660814 0.1786538531118259 0  0.1521458226232783 0.1855073748577727 0  0.1505394440967481 0.192673503814618 0  0.1505394490470953 0.2073217789631764 0  0.1521458325725587 0.214487909741073 0  0.154784602906891 0.2213414346435379 0  0.1583988325179211 0.2277344989605255 0  0.1629105495986768 0.2335291818303179 0  0.1682224204842032 0.2386004719323127 0  0.1742198491757085 0.2428389638057143 0  0.1807734499110719 0.2461532189706568 0  0.1877418382187473 0.2484717387123374 0  0.1949746811321061 0.2497445054381326 0  0.2023159405195315 0.2499440623268535 0  0.2096072392648729 0.2490661080988233 0  0.2166912779875028 0.2471295856667906 0  0.2234152285619599 0.2441762800653687 0  0.2296340312147639 0.2402699084348207 0  0.2352135235064115 0.235494760677466 0  0.2400333350762139 0.2299538657325128 0  0.2439894822245318 0.223766807198183 0  0.2469966095862675 0.2170671500213922 0  0.2564581923910279 0.2099988990986688 0  0.2639265222919782 0.2099985309166531 0  0.271394853237482 0.2099982928875214 0  0.2788631595372583 0.2099981059250058 0  0.2863314689587729 0.2099979477071681 0  0.293799769827337 0.2099978101289501 0  0.301268073487216 0.2099976875937627 0  0.3087363744783577 0.2099975805724145 0  0.3162046802756184 0.2099974810551383 0  0.3236729805269891 0.2099973894009056 0  0.3311412885929945 0.2099973046650524 0  0.3386095884066718 0.2099972263720674 0  0.3460778965196061 0.2099971500238801 0  0.3535461973993075 0.2099970687471555 0  0.3610144975013385 0.2099970218501988 0  0.3684828029224351 0.2099969693196277 0  0.3759510983674786 0.2099969143433 0  0.3834194018425254 0.2099968622277044 0  0.3908876954322995 0.2099968110346674 0  0.3983559981209649 0.2099967612791059 0  0.4058242897634968 0.2099967124159509 0  0.4132925914279098 0.2099966585334352 0  0.4207608812736934 0.2099965935574216 0  0.4282291796976437 0.2099965655498163 0  0.4356974859740785 0.2099965241695056 0  0.4431657852053048 0.2099964865204883 0  0.4506340970592031 0.2099964424236589 0  0.4581024001498589 0.2099964073129735 0  0.4655707192154343 0.209996369231194 0  0.4730390257057749 0.2099963355672766 0  0.4805073478176506 0.2099963120541789 0  0.4879756582167908 0.2099962944846241 0  0.4954439927423283 0.209996238735556 0  0.5029123071919889 0.2099962194126822 0  0.5103806406981337 0.2099962412572729 0  0.5178489499484081 0.2099962294245097 0  0.5253172715214212 0.2099962170823441 0  0.5327855792301199 0.2099962053920792 0  0.5402539033608137 0.2099962011245358 0  0.5477222124616116 0.209996200349208 0  0.5551905334756584 0.2099962036503525 0  0.5626588419418594 0.2099961909646381 0  0.5701271363819174 0.2099962234981273 0  0.5775954424652125 0.2099962461874816 0  0.5850637373493331 0.2099962515576287 0  0.5925320348403249 0.2099962675982126 0  0.600000318279661 0.2049962836216057 0  0.6000002928034687 0.1949962895396499 0  0.5925319831206858 0.1899962759332216 0  0.5850636864922849 0.1899962506098308 0  0.5775953757734104 0.1899962275011578 0  0.5701270741579045 0.1899962052004502 0  0.5626587648966088 0.1899961747167479 0  0.5551904512715012 0.1899961804230865 0  0.5477221487014248 0.1899961746897419 0  0.540253828496157 0.1899961705147882 0  0.5327855248692136 0.1899961720081946 0  0.5253172025610218 0.1899961766310232 0  0.5178488976238902 0.1899961815746889 0  0.5103805774734866 0.189996184640514 0  0.5029122691255998 0.1899961904163411 0  0.4954439333548925 0.1899962071021369 0  0.4879756247308122 0.1899962348028655 0  0.4805073029001931 0.1899962663124398 0  0.4730389973031273 0.1899962975756 0  0.4655706736881901 0.1899963309550053 0  0.4581023705931622 0.1899963680670725 0  0.4506340529256402 0.1899964094186468 0  0.4431657513936785 0.189996453275417 0  0.435697435584091 0.1899964988431221 0  0.4282291333497909 0.1899965428878309 0  0.4207608221305816 0.1899965772733228 0  0.4132925144970136 0.1899966420151759 0  0.4058242148700684 0.189996700107266 0  0.3983559065924767 0.1899967535156308 0  0.3908876057394315 0.1899968070591024 0  0.3834192970806135 0.1899968605720994 0  0.3759509953281725 0.1899969147986521 0  0.3684826871557591 0.1899969702636707 0  0.3610143864172284 0.1899970238245066 0  0.3535460779681355 0.1899970738642836 0  0.346077768499908 0.1899971539957023 0  0.3386094659975362 0.1899972317914229 0  0.3311411570285758 0.189997311203204 0  0.3236728563604457 0.189997395563405 0  0.3162045507707849 0.1899974869279438 0  0.3087362511019741 0.1899975847655556 0  0.301267947674991 0.1899976909396277 0  0.2937996459861066 0.1899978137268859 0  0.2863313396500324 0.1899979504595152 0  0.2788630361620439 0.1899981051852346 0  0.2713947136703245 0.1899982989947215 0  0.2639264026451164 0.1899985517727772 0  0.2564580894104764 0.18999890618130
[...]
<PointData  Vectors="f_30-0"> 
<DataArray  type="Float64"  Name="f_30-0"  NumberOfComponents="3" format="ascii">0.0000000000000000e+00 0.0000000000000000e+00 0.0000000000000000e+00  0.0000000000000000e+00 0.0000000000000000e+00 0.0000000000000000e+00  0.0000000000000000e+00 0.0000000000000000e+00 0.0000000000000000e+00  0.0000000000000000e+00 0.0000000000000000e+00 0.0000000000000000e+00  5.2488692641965484e-02 -1.1768112339649564e-01 0.0000000000000000e+00  1.1992584387247920e-01 -1.0859473821663640e-01 0.0000000000000000e+00  0.0000000000000000e+00 0.0000000000000000e+00 0.0000000000000000e+00  0.0000000000000000e+00 0.0000000000000000e+00 0.0000000000000000e+00  0.0000000000000000e+00 0.0000000000000000e+00 0.0000000000000000e+00  0.0000000000000000e+00 0.0000000000000000e+00 0.0000000000000000e+00  1.9433950389798343e-01 -2.4594820484878641e-01 0.0000000000000000e+00  0.0000000000000000e+00 0.0000000000000000e+00 0.0000000000000000e+00  0.0000000000000000e+00 0.0000000000000000e+00 0.0000000000000000e+00  0.0000000000000000e+00 0.0000000000000000e+00 0.0000000000000000e+00  0.0000000000000000e+00 0.0000000000000000e+00 0.0000000000000000e+00  0.0000000000000000e+00 0.0000000000000000e+00 0.0000000000000000e+00  0.0000000000000000e+00 0.0000000000000000e+00 0.0000000000000000e+00  0.0000000000000000e+00 0.0000000000000000e+00 0.0000000000000000e+00  0.0000000000000000e+00 0.0000000000000000e+00 0.0000000000000000e+00  0.0000000000000000e+00 0.0000000000000000e+00 0.0000000000000000e+00  0.0000000000000000e+00 0.0000000000000000e+00 0.0000000000000000e+00  0.0000000000000000e+00 0.0000000000000000e+00 0.0000000000000000e+00  0.0000000000000000e+00 0.0000000000000000e+00 0.0000000000000000e+00  0.0000000000000000e+00 0.0000000000000000e+00 0.0000000000000000e+00  0.0000000000000000e+00 0.0000000000000000e+00 0.0000000000000000e+00  0.0000000000000000e+00 0.0000000000000000e+00 0.0000000000000000e+00  0.0000000000000000e+00 0.0000000000000000e+00 0.0000000000000000e+00  0.0000000000000000e+00 0.0000000000000000e+00 0.0000000000000000e+00  0.0000000000000000e+00 0.0000000000000000e+00 0.0000000000000000e+00  0.0000000000000000e+00 0.0000000000000000e+00 0.0000000000000000e+00  0.0000000000000000e+00 0.0000000000000000e+00 0.0000000000000000e+00  0.0000000000000000e+00 0.0000000000000000e+00 0.0000000000000000e+00  0.0000000000000000e+00 0.0000000000000000e+00 0.0000000000000000e+00  0.0000000000000000e+00 0.0000000000000000e+00 0.0000000000000000e+00  0.0000000000000000e+00 0.0000000000000000e+00 0.0000000000000000e+00  0.0000000000000000e+00 0.0000000000000000e+00 0.0000000000000000e+00  0.0000000000000000e+00 0.0000000000000000e+00 0.0000000000000000e+00  0.0000000000000000e+00 0.0000000000000000e+00 0.0000000000000000e+00  0.0000000000000000e+00 0.0000000000000000e+00 0.0000000000000000e+00  0.0000000000000000e+00 0.0000000000000000e+00 0.0000000000000000e+00  0.0000000000000000e+00 0.0000000000000000e+00 0.0000000000000000e+00  0.0000000000000000e+00 0.0000000000000000e+00 0.0000000000000000e+00  0.0000000000000000e+00 0.0000000000000000e+00 0.0000000000000000e+00  0.0000000000000000e+00 0.0000000000000000e+00 0.0000000000000000e+00  0.0000000000000000e+00 0.0000000000000000e+00 0.0000000000000000e+00  0.0000000000000000e+00 0.0000000000000000e+00 0.0000000000000000e+00  0.0000000000000000e+00 0.0000000000000000e+00 0.0000000000000000e+00  0.0000000000000000e+00 0.0000000000000000e+00 0.0000000000000000e+00  0.0000000000000000e+00 0.0000000000000000e+00 0.0000000000000000e+00  0.0000000000000000e+00 0.0000000000000000e+00 0.0000000000000000e+00  0.0000000000000000e+00 0.0000000000000000e+00 0.0000000000000000e+00  0.0000000000000000e+00 0.0000000000000000e+00 0.0000000000000000e+00  0.0000000000000000e+00 0.0000000000000000e+00 0.0000000000000000e+00  0.0000000000000000e+00 0.0000000000000000e+00 0.0000000000000000e+00  0.0000000000000000e+00 0.0000000000000000e+00 0.0000000000000000e+00  0.0000000000000000e+00 0.0000000000000000e+00 0.0000000000000000e+00  0.0000000000000000e+00 0.0000000000000000e+00 0.0000000000000000e+00  0.0000000000000000e+00 0.0000000000000000e+00 0.0000000000000000e+00  0.0000000000000000e+00 0.0000000000000000e+00 0.0000000000000000e+00  0.0000000000000000e+00 0.0000000000000000e+00 0.0000000000000000e+00  0.0000000000000000e+00 0.0000000000000000e+00 0.0000000000000000e+00  0.0000000000000000e+00 0.0000000000000000e+00 0.0000000000000000e+00  9.8926772575472374e-09 3.4487600272758204e-09 0.0000000000000000e+00  -2.1201909913096118e-10 4.9763238028128591e-09 0.0000000000000000e+00  -1.0176821013612074e-08 3.9255640784386637e-09 0.0000000000000000e+00  0.0000000000000000e+00 0.0000000000000000e+00 0.0000000000000000e+00  0.0000000000000000e+00 0.0000000000000000e+00 0.0000000000000000e+00  0.0000000000000000e+00 0.0000000000000000e+00 0.0000000000000000e+00  0.0000000000000000e+00 0.0000000000000000e+00 0.0000000000000000e+00  0.0000000000000000e+00 0.0000000000000000e+00 0.0000000000000000e+00  0.0000000000000000e+00 0.0000000000000000e+00 0.0000000000000000e+00  0.0000000000000000e+00 0.0000000000000000e+00 0.0000000000000000e+00  0.0000000000000000e+00 0.0000000000000000e+00 0.0000000000000000e+00  0.0000000000000000e+00 0.0000000000000000e+00 0.0000000000000000e+00  0.0000000000000000e+00 0.0000000000000000e+00 0.0000000000000000e+00  0.0000000000000000e+00 0.0000000000000000e+00 0.0000000000000000e+00  0.0000000000000000e+00 0.0000000000000000e+00 0.0000000000000000e+00  0.0000000000000000e+00 0.0000000000000000e+00 0.0000000000000000e+00  0.0000000000000000e+00 0.0000000000000000e+00 0.0000000000000000e+00  0.0000000000000000e+00 0.0000000000000000e+00 0.0000000000000000e+00  0.0000000000000000e+00 0.0000000000000000e+00 0.0000000000000000e+00  0.0000000000000000e+00 0.0000000000000000e+00 0.0000000000000000e+00  0.0000000000000000e+00 0.0000000000000000e+00 0.0000000000000000e+00  0.0000000000000000e+00 0.0000000000000000e+00 0.0000000000000000e+00  0.0000000000000000e+00 0.0000000000000000e+00 0.0000000000000000e+00  0.0000000000000000e+00 0.0000000000000000e+00 0.0000000000000000e+00  0.0000000000000000e+00 0.0000000000000000e+00 0.0000000000000000e+00  0.0000000000000000e+00 0.0000000000000000e+00 0.0000000000000000e+00  0.0000000000000000e+00 0.0000000000000000e+00 0.0000000000000000e+00  0.0000000000000000e+00 0.0000000000000000e+00 0.0000000000000000e+00  0.0000000000000000e+00 0.0000000000000000e+00 0.0000000000000000e+00  0.0000000000000000e+00 0.0000000000000000e+00 0.0000000000000000e+00  0.0000000000000000e+00 0.0000000000000000e+00 0.0000000000000000e+00  0.0000000000000000e+00 0.0000000000000000e+00 0.0000000000000000e+00  0.0000000000000000e+00 0.0000000000000000e+00 0.0000000000000000e+00  0.0000000000000000e+00 0.0000000000000000e+00 0.0000000000000000e+00  0.0000000000000000e+00 0.0000000000000000e+00 0.0000000000000000e+00  0.0000000000000000e+00 0.0000000000000000e+00 0.0000000000000000e+00  0.0000000000000000e+00 0.0000000000000000e+00 0.0000000000000000e+00  0.0000000000000000e+00 0.0000000000000000e+00 0.0000000000000000e+00  0.0000000000000000e+00 0.0000000000000000e+00 0.0000000000000000e+00  0.0000000000000000e+00 0.0000000000000000e+00 0.0000000000000000e+00  0.0000000000000000e+00 0.0000000000000000e+00 0.0000000000000000e+00  0.0000000000000000e+00 0.0000000000000000e+00 0.0000000000000000e+00  0.0000000000000000e+00 0.0000000000000000e+00 0.0000000000000000e+00  0.0000000000000000e+00 0.0000000000000000e+00 0.0000000000000000e+00  0.0000000000000000e+00 0.0000000000000000e+00 0.0000000000000000e+00  0.0000000000000000e+00 0.0000000000000000e+00 0.0000000000000000e+00  0.0000000000000000e+00 0.0000000000000000e+00 0.0000000000000000e+00  0.0000000000000000e+00 0.0000000000000000e+00 0.0000000000000000e+00  0.0000000000000000e+00 0.0000000000000000e+00 0.0000000000000000e+00  0.0000000000000000e+00 0.0000000000000000e+00 0.0000000000000000e+00  0.0000000000000000e+00 0.0000000000000000e+00 0.0000000000000000e+00  0.0000000000000000e+00 0.0000000000000000e+00 0.0000000000000000e+00  0.0000000000000000e+00 0.0000000000000000e+00 0.0000000000000000e+00  0.0000000000000000e+00 0.0000000000000000e+00 0.0000000000000000e+00  0.0000000000000000e+00 0.0000000000000000e+00 0.0000000000000000e+00  0.0000000000000000e+00 0.0000000000000000e+00 0.0000000000000000e+00  0.0000000000000000e+00 0.0000000000000000e+00 0.0000000000000000e+00  0.0000000000000000e+00 0.0000000000000000e+00 0.0000000000000000e+00  0.0000000000000000e+00 0.0000000000000000e+00 0.0000000000000000e+00  0.0000000000000000e+00 0.0000000000000000e+00 0.0000000000000000e+00  0.0000000000000000e+00 0.0000000000000000e+00 0.0000000000000000e+00  0.0000000000000000e+00 0.0000000000000000e+00 0.0000000000000000e+00  0.0000000000000000e+00 0.0000000000000000e+00 0.0000000000000000e+00  0.0000000000000000e+00 0.0000000000000000e+00 0.0000000000000000e+00  0.0000000000000000e+00 0.0000000000000000e+00 0.0000000000000000e+00  0.0000000000000000e+00 0.0000000000000000e+00 0.0000000000000000e+00  0.0000000000000000e+00 0.0000000000000000e+00 0.0000000000000000e+00  0.0000000000000000e+00 0.0000000000000000e+00 0.0000000000000000e+00  0.0000000000000000e+00 0.0000000000000000e+00 0.0000000000000000e+00  0.0000000000000000e+00 0.0000000000000000e+00 0.0000000000000000e+00  0.0000000000000000e+00 0.0000000000000000e+00 0.0000000000000000e+00  0.0000000000000000e+00 0.0000000000000000e+00 0.0000000000000000e+00  0.0000000000000000e+00 0.0000000000000000e+00 0.0000000000000000e+00  0.0000000000000000e+00 0.0000000000000000e+00 0.0000000000000000e+00  0.0000000000000000e+00 0.0000000000000000e+00 0.0000000000000000e+00  0.0000000000000000e+00 0.0000000000000000e+00 0.0000000000000000e+00  0.0000000000000000e+00 0.0000000000000000e+00 0.0000000000000000e+00  0.0000000000000000e+00 0.0000000000000000e+00 0.0000000000000000e+00  0.0000000000000000e+00 0.0000000000000000e+00 0.0000000000000000e+00  0.0000000000000000e+00 0.0000000000000000e+00 0.0000000000000000e+00  0.0000000000000000e+00 0.0000000000000000e+00 0.0000000000000000e+00  1.1298107177087345e-01 6.7041402168048991e-01 0.0000000000000000e+00  8.3183722466038612e-02 6.1312249469806934e-01 0.0000000000000000e+00  2.1784984216125194e-01 4.8260163297361469e-01 0.0000000000000000e+00  9.7973644437166274e-02 2.8996615826801331e-01 0.0000000000000000e+00  1.2461226716145529e-01 1.7012219996432937e-01 0.0000000000000000e+00  5.2764958677321075e-02 4.6152996883089367e-02 0.0000000000000000e+00  6.9295307727095468e-02 -3.5734212606085204e-02 0.0000000000000000e+00  5.3979288779965901e-03 -1.2105474639143819e-01 0.0000000000000000e+00  4.3782003055057826e-02 -1.8246405691581863e-01 0.0000000000000000e+00  -1.2976105345162444e-02 -2.1380046099868447e-01 0.0000000000000000e+00  4.3024414324441464e-02 -2.7318476318520490e-01 0.0000000000000000e+00  -1.6603262830682426e-02 -2.7612979759257666e-01 0.0000000000000000e+00  6.3622315609761629e-02 -3.3214654854470183e-01 0.0000000000000000e+00  1.6406830290038147e-02 -3.5869275519212479e-01 0.0000000000000000e+00  7.0585379635620428e-03 -3.2896901747287821e-01 0.0000000000000000e+00  3.9259810816010446e-02 -2.8947611814632856e-01 0.0000000000000000e+00  -5.2417445639663445e-03 -3.2057001929245671e-01 0.0000000000000000e+00  2.8940820214593609e-02 -3.0611366504660587e-01 0.0000000000000000e+00  -2.8107176748674283e-02 -3.1387218550425450e-01 0.0000000000000000e+00  2.0256254441587022e-02 -3.4211805091124220e-01 0.0000000000000000e+00  -7.1104639097173808e-02 -3.2394212684001356e-01 0.0000000000000000e+00  1.9426662799747720e-02 -3.7830798842280600e-01 0.0000000000000000e+00  -8.2857113661110315e-02 -4.1539608306601428e-01 0.0000000000000000e+00  -1.1817353148452613e-01 -3.9977702643428015e-01 0.0000000000000000e+00  -9.1466261078441399e-02 -5.5283635173021139e-01 0.0000000000000000e+00  -1.3207970580272044e-01 -4.7908728809466661e-01 0.0000000000000000e+00  -9.6078279810335371e-02 -6.4500088655225629e-01 0.0000000000000000e+00  -1.7284160150078384e-01 -5.9696419244274879e-01 0.0000000000000000e+00  -2.1515140793213278e-02 -6.9529302096562728e-01 0.0000000000000000e+00  -1.5691011283814743e-01 -7.5878575706522966e-01 0.0000000000000000e+00  -4.9548493058199590e-02 -6.9663843693979888e-01 0.0000000000000000e+00  -1.7076884726806504e-01 -4.1657109127509268e-01 0.0000000000000000e+00  1.6101804947549789e-01 -1.0930130440196777e+00 0.0000000000000000e+00  -1.3878327607213906e-01 -1.1485022090042498e+00 0.0000000000000000e+00  1.7412563740827297e-01 -4.2143505991998592e-01 0.0000000000000000e+00  4.8092223902973012e-02 -5.5589673068466372e-01 0.0000000000000000e+00  1.2373567495453749e-01 -5.8560681984133778e-01 0.0000000000000000e+00  -7.9474219807419803e-03 -6.9911630953359960e-01 0.0000000000000000e+00  1.7555396698526302e-01 -6.7220511507622449e-01 0.0000000000000000e+00  7.2605644175924730e-02 -6.4174217347340967e-01 0.0000000000000000e+00  2.0690512011194739e-01 -4.5741005884999597e-01 0.0000000000000000e+00  1.4520628801134922e-01 -4.7316092916276598e-01 0.0000000000000000e+00  8.6190692015079978e-02 -4.0749786756884715e-01 0.0000000000000000e+00  1.8321682182481788e-01 -2.5778969429432363e-01 0.0000000000000000e+00  1.4834421050182506e-01 -4.5566196705917444e-01 0.0000000000000000e+00  3.0452229505505218e-01 -4.8589274839286462e-01 0.0000000000000000e+00  2.9171087648684474e-01 -3.1858028531617094e-01 0.0000000000000000e+00  5.1569359241578724e-02 -1.9196076663824280e-01 0.0000000000000000e+00  7.7150299140982800e-02 -2.1770034473999564e-01 0.0000000000000000e+00  1.6672622106838988e-01 -2.9926892614015393e-01 0.0000000000000000e+00  6.0283789815275851e-02 -3.4175105354426638e-01 0.0000000000000000e+00  1.4391664493049594e-01 -4.1945299273660447e-01 0.0000000000000000e+00  7.9753789324789784e-02 -4.1620401893166531e-01 0.0000000000000000e+00  2.7303109403611504e-02 -4.7466113729701875e-01 0.0000000000000000e+00  1.6556479403616642e-01 -5.1262438396285692e-01 0.0000000000000000e+00  -9.2969122747820297e-03 -5.5044596004011459e-01 0.0000000000000000e+00  1.2280218859962388e-01 -5.6503374284262531e-01 0.0000000000000000e+00  -4.5782468674971169e-02 -5.6057102643418144e-01 0.0000000000000000e+00  1.3818688167705093e-01 -5.6893938240974229e-01 0.0000000000000000e+00  2.9296939124681943e-02 -6.2133569081293771e-01 0.0000000000000000e+00  1.6899450720008585e-01 -7.2652866789122383e-01 0.0000000000000000e+00  -1.4650529536654197e-01 -7.2916594105397947e-01 0.0000000000000000e+00  1.9297271264742024e-03 -6.4432748745087887e-01 0.0000000000000000e+00  -1.2201298835674861e-01 -6.1079320968325357e-01 0.0000000000000000e+00  5.1041810299307135e-02 -6.0669565496842903e-01 0.0000000000000000e+00  -1.3529643349096399e-01 -5.9218378870290078e-01 0.0000000000000000e+00  6.9985479133739363e-03 -5.5356559910612058e-01 0.0000000000000000e+00  -1.3457194620136487e-01 -5.2246700592994888e-01 0.0000000000000000e+00  -2.4811316461393718e-05 -4.8677807407456286e-01 0.0000000000000000e+00  -1.2513734905339369e-01 -4.4997209959595480e-01 0.0000000000000000e+00  -5.6512918495817280e-03 -4.2414309014969848e-01 0.0000000000000000e+00  -5.6693128315074455e-02 -3.9138465097486791e-01 0.0000000000000000e+00  -9.3154852265875387e-02 -3.8766594041440644e-01 0.0000000000000000e+00  -2.1719328555056601e-02 -3.3748408425824417e-01 0.0000000000000000e+00  -7.4217770717750695e-02 -3.3793302047556462e-01 0.0000000000000000e+00  -6.6378890640786297e-03 -3.3097158126683845e-01 0.0000000000000000e+00  -6.3428879113935355e-02 -3.2802422448559515e-01 0.0000000000000000e+00  -5.8722107496797281e-03 -3.2228246644891922e-01 0.0000000000000000e+00  -5.5179067546931658e-02 -3.1248613320046542e-01 0.0000000000000000e+00  2.8433675673963563e-03 -3.2397203394133905e-01 0.0000000000000000e+00  -2.0164623984729849e-02 -3.2031391766585504e-01 0.0000000000000000e+00  -9.1210328601258148e-02 -3.2829696427980154e-01 0.0000000000000000e+00  -1.4737019494605678e-02 -2.8429618719480770e-01 0.0000000000000000e+00  -9.6287280696288668e-02 -2.6600280483951072e-01 0.0000000000000000e+00  -2.7924876690261384e-02 -2.2462750021788572e-01 0.0000000000000000e+00  -8.3235918276717280e-02 -1.8561664902787336e-01 0.0000000000000000e+00  -2.7873129125221531e-02 -1.2758953410019350e-01 0.0000000000000000e+00  -6.2179504667164980e-02 -5.8320998507921842e-02 0.0000000000000000e+00  -1.1581173933779295e-02 3.9444456472754713e-02 0.0000000000000000e+00  -3.1283601769806289e-02 1.5863555140831703e-01 0.0000000000000000e+00  4.8606301219597130e-02 2.0973617432322225e-01 0.0000000000000000e+00  -1.2311168030904152e-01 4.9312559505355225e-01 0.0000000000000000e+00  -2.2867531260257379e-01 8.9254829147400394e-01 0.0000000000000000e+00  -2.3221810477107144e-01 6.7813109388799486e-01 0.0000000000000000e+00  -8.2973418307457272e-03 -4.2653296778042610e-01 0.0000000000000000e+00  -1.3041466230141739e-02 2.3017508516221019e-01 0.0000000000000000e+00  7.7170992920553442e-03 2.8279872511735532e-01 0.0000000000000000e+00  5.5323701668159335e-03 4.2463044304628839e-01 0.0000000000000000e+00  -6.8312374508355603e-02 -3.1164496726935692e-01 0.0000000000000000e+00  2.8795539447389260e-02 4.8240668124127367e-01 0.0000000000000000e+00  1.5931056483326562e-02 -1.0902881909399482e-01 0.0000000000000000e+00  6.8108416565675706e-02 4.6772719915030742e-01 0.0000000000000000e+00  4.6217392454848657e-03 1.2324625485929053e-01 0.0000000000000000e+00  -7.6783108921971003e-04 1.9271048480910452e-01 0.0000000000000000e+00  -1.7445927474403614e-01 5.7479479132526734e-01 0.0000000000000000e+00  4.5997345074930505e-03 2.5445039469018815e-01 0.0000000000000000e+00  -7.7247281922422029e-02 5.2140039982923769e-01 0.0000000000000000e+00  -3.7326482904528162e-03 2.2523160294917210e-01 0.0000000000000000e+00  -1.7503139329600314e-03 2.5454057642259859e-01 0.0000000000000000e+00  -4.3365940212221404e-03 4.8145211850843428e-01 0.0000000000000000e+00  1.6901927135317757e-01 5.7176155288124331e-01 0.0000000000000000e+00  -1.2284316168399026e-02 2.6549433636437719e-01 0.0000000000000000e+00  -1.2327812580565919e-02 4.2461400619532358e-01 0.0000000000000000e+00  -1.8331463054574537e-03 2.7977035784884607e-01 0.0000000000000000e+00  -1.6734265956549161e-02 3.6142894455073704e-01 0.0000000000000000e+00  9.6497108113732643e-03 2.6100797443112816e-01 0.0000000000000000e+00  -5.1137864857073135e-04 2.1150874355652671e-01 0.0000000000000000e+00  -9.2323713964942867e-03 3.0083121814944341e-01 0.0000000000000000e+00  4.3200927472178399e-03 3.6526194673823828e-02 0.0000000000000000e+00  -5.0596676897417892e-03 2.0496926060260318e-01 0.0000000000000000e+00  -9.9765315881022304e-02 -4.0110138758082048e-01 0.0000000000000000e+00  1.0979010717013054e-02 3.2187085438732344e-01 0.0000000000000000e+00  -2.5616967261745480e-02 3.4233947944448972e-01 0.0000000000000000e+00  2.2779017235453839e-02 -1.3605828515932539e-01 0.0000000000000000e+00  1.9725798633878140e-02 1.1904058124737839e-01 0.0000000000000000e+00  2.6652967524699308e-02 3.3846664606923932e-01 0.0000000000000000e+00  -3.4569145575559027e-02 3.1145929649220644e-01 0.0000000000000000e+00  -1.0388046400032715e-02 1.8117194104532272e-01 0.0000000000000000e+00  -4.2999837340512844e-03 3.5407206736330388e-01 0.0000000000000000e+00  1.8066820105639328e-02 1.4862493988547337e-01 0.0000000000000000e+00  2.3404090781387900e-03 1.8559482319982129e-01 0.0000000000000000e+00  9.7469612716926824e-03 3.2843414635540447e-01 0.0000000000000000e+00  -1.7026418172830372e-03 5.3818610028782432e-01 0.0000000000000000e+00  1.9887495258329061e-02 2.1439384281828908e-01 0.0000000000000000e+00  9.9939465903993562e-03 2.6166490114185775e-01 0.0000000000000000e+00  -4.8133548251750286e-02 -3.8609433714002728e-01 0.0000000000000000e+00  1.6826522615222092e-01 -3.2915147634952002e-01 0.0000000000000000e+00  -1.5568747817564535e-01 1.8699284667599717e-01 0.0000000000000000e+00  1.4768953733553414e-02 -3.9506199594398156e-01 0.0000