<?xml version="1.0"?>
<VTKFile type="UnstructuredGrid"  version="0.1"  >
<UnstructuredGrid>
<Piece  NumberOfPoints="1419" NumberOfCells="2698">
<Points>
<DataArray  type="Float64"  NumberOfComponents="3"  format="ascii">-1.769162151533905e-09 -5.850862966029795e-07 0  5.005334989389239e-09 0.4099994125329871 0  2.50000000457532 -8.547429784045927e-07 0  2.500000004575325 0.4099991452570294 0  0.6000000042753793 0.189999113730309 0  0.6000000077150826 0.2099991154417374 0  0.25 0.2 0  0.1500000015032887 0.1999994188814595 0  0.2489897948556636 0.21 0  0.2489897948556636 0.19 0  0.6000000066318572 0.1999991101945214 0  4.93024802724799e-09 0.3807136984126764 0  4.71608841056491e-09 0.3514279845767189 0  4.355014968473385e-09 0.3221422709580088 0  3.845287635169029e-09 0.2928565574117615 0  3.21178131647882e-09 0.2635708438267939 0  2.478273416059815e-09 0.234285130128708 0  1.673359073634763e-09 0.2049994162058234 0  8.633547570655055e-10 0.1757137020775505 0  1.06763448053954e-10 0.1464279877235909 0  -5.584828712610663e-10 0.1171422731864949 0  -1.080016852877854e-09 0.08785655853498439 0  -1.466135970827968e-09 0.05857084386887974 0  -1.695913669207132e-09 0.02928512929855693 0  0.03015443575727588 -5.851978109257757e-07 0  0.06140001776564577 -5.856015654395582e-07 0  0.09377623822617075 -5.865159585775439e-07 0  0.1273239925727968 -5.883220100130483e-07 0  0.1620856820563704 -5.917035206493625e-07 0  0.1981052384501145 -5.983362806446774e-07 0  0.2354281783678675 -6.107195344813342e-07 0  0.2741016512971881 -6.304488521140683e-07 0  0.3141745455741148 -6.577442853984593e-07 0  0.355697486400869 -6.915778046152168e-07 0  0.3987229488874829 -7.280601635067549e-07 0  0.4433053014857325 -7.632254710567827e-07 0  0.4895008735181984 -7.943814467009799e-07 0  0.5373680602034412 -8.189309094277996e-07 0  0.5869673350965798 -8.357623293835584e-07 0  0.6383613696726329 -8.461843454771787e-07 0  0.6916151167421017 -8.513783741100023e-07 0  0.746795863057641 -8.536624732966243e-07 0  0.8039733502844286 -8.545856735769592e-07 0  0.863219818099737 -8.54885183413744e-07 0  0.924610137001372 -8.549308792776839e-07 0  0.9882218855081136 -8.548939305994553e-07 0  1.054135450038465 -8.548489678116752e-07 0  1.122434105060638 -8.548114503876223e-07 0  1.193204181683753 -8.547842270838098e-07 0  1.266535094436412 -8.547668435320811e-07 0  1.34251952061134 -8.547566048831749e-07 0  1.421253453073548 -8.547505376592214e-07 0  1.502836393678586 -8.547469761811785e-07 0  1.5873714443326 -8.54745057428326e-07 0  1.674965423351898 -8.547440416029021e-07 0  1.765729006400473 -8.547435008696716e-07 0  1.85977691345521 -8.547432350129837e-07 0  1.957227982062294 -8.547430956012251e-07 0  2.058205334445222 -8.547430321320789e-07 0  2.162836595765254 -8.547429997401212e-07 0  2.271253961866178 -8.54742986014101e-07 0  2.383594451378743 -8.547429801398143e-07 0  2.50000000457532 0.1024991452567839 0  2.500000004575322 0.2049991452564997 0  2.500000004575325 0.3074991452567465 0  2.383594451378982 0.4099991452570311 0  2.271253961866645 0.4099991452570371 0  2.16283659576594 0.4099991452570514 0  2.058205334446141 0.4099991452570823 0  1.957227982063479 0.4099991452571451 0  1.859776913456767 0.4099991452572914 0  1.765729006402573 0.4099991452575563 0  1.674965423354956 0.4099991452581196 0  1.587371444337306 0.4099991452591385 0  1.50283639368629 0.4099991452610798 0  1.421253453086819 0.4099991452648327 0  1.342519520634005 0.4099991452712107 0  1.266535094475151 0.4099991452823681 0  1.193204181751241 0.4099991453033944 0  1.122434105176613 0.4099991453411361 0  1.054135450229538 0.4099991454043127 0  0.988221885826399 0.4099991455296336 0  0.9246101375147361 0.4099991457600865 0  0.8632198189205061 0.4099991462018796 0  0.803973351570216 0.4099991470859262 0  0.7467958650372271 0.4099991488584373 0  0.6916151197066555 0.4099991523034257 0  0.6383613740106147 0.4099991589684148 0  0.5869673412423693 0.4099991703041306 0  0.5373680685203059 0.4099991875898926 0  0.4895008842491549 0.4099992117629887 0  0.4433053145767301 0.4099992413964222 0  0.3987229639172267 0.4099992744467365 0  0.3556975026264132 0.409999308326404 0  0.3141745620873268 0.4099993397981056 0  0.2741016671426491 0.4099993658845102 0  0.2354281928828343 0.4099993846305479 0  0.1981052512627998 0.4099993969558769 0  0.1620856931160315 0.4099994041880094 0  0.1273240020778305 0.4099994082202975 0  0.0937762465003619 0.409999410542502 0  0.06140002518378075 0.4099994117493866 0  0.03015444267752479 0.4099994123763888 0  0.2497468076502589 0.2050254481002335 0  0.2497468076502614 0.1949745518997913 0  0.2469965171719474 0.1829314176724632 0  0.2439893643087792 0.1762312472711234 0  0.240033205533194 0.1700438876306874 0  0.2352133884782841 0.1645028001223534 0  0.229633893443811 0.159727513622373 0  0.2234150898951972 0.1558210441745769 0  0.2166911394970553 0.1528676654794392 0  0.2096071017422636 0.150931090764248 0  0.2023158045406253 0.150053097069994 0  0.1949745470628257 0.1502526255820916 0  0.1877417063627918 0.1515253708164695 0  0.1807733205116776 0.1538438748784377 0  0.1742197223956574 0.1571581189175421 0  0.168222296407896 0.1613966027712732 0  0.162910428381651 0.1664678870117184 0  0.1583987141784021 0.1722625659463566 0  0.1547844875443169 0.1786556276246585 0  0.1521457201853123 0.1855091509487825 0  0.150539339730859 0.1926752809997969 0  0.1505393409756149 0.2073235568934139 0  0.1521457226869356 0.2144896873525368 0  0.1547844912771238 0.2213432113840405 0  0.1583987191630489 0.2277362741576021 0  0.162910434600351 0.2335309546464318 0  0.1682223038873471 0.2386022411293265 0  0.1742197311125191 0.2428407279996199 0  0.1807733304895906 0.2461549762246077 0  0.1877417176048937 0.2484734860419152 0  0.1949745595797714 0.2497462392108837 0  0.202315818321433 0.2499457782168968 0  0.2096071168180735 0.2490677991843454 0  0.216691155833536 0.2471312437901777 0  0.2234151074912672 0.244177892145903 0  0.2296339122271699 0.2402714594981442 0  0.2352134082915875 0.2354962252792988 0  0.2400332260232359 0.22995521135772 0  0.2439893845108461 0.2237679690047769 0  0.246996534485298 0.2170680019633035 0  0.256458109922172 0.2099997146124607 0  0.2639264152519494 0.2099996165739533 0  0.2713947192067881 0.2099995529086922 0  0.2788630222167865 0.2099995049603487 0  0.2863313244583092 0.2099994662600615 0  0.2937996279360976 0.2099994327763212 0  0.3012679298666706 0.2099994021068742 0  0.308736230915944 0.2099993822797875 0  0.3162045345322977 0.2099993629463314 0  0.3236728351960886 0.2099993449348409 0  0.3311411386734476 0.2099993288633529 0  0.3386094390444258 0.2099993140948101 0  0.3460777418539171 0.2099992999762384 0  0.3535460425795131 0.2099992846171287 0  0.3610143435172014 0.209999276477119 0  0.3684826461151161 0.2099992669267014 0  0.3759509467114207 0.2099992570442663 0  0.3834192493924906 0.20999924764571 0  0.3908875500432192 0.2099992385672129 0  0.3983558527995669 0.2099992299881382 0  0.4058241533854294 0.209999221334427 0  0.4132924559460258 0.2099992122808652 0  0.4207607566613373 0.2099992015116706 0  0.4282290578030153 0.2099991964034591 0  0.4356973603181511 0.2099991898559921 0  0.4431656613370584 0.2099991826622581 0  0.4506339639747058 0.2099991754072588 0  0.4581022648807356 0.2099991682679881 0  0.4655705676342045 0.2099991612405095 0  0.4730388683893371 0.2099991543461565 0  0.4805071712868493 0.2099991475563137 0  0.487975472077005 0.2099991408624892 0  0.4954437751402714 0.2099991343264657 0  0.5029120756537164 0.2099991282721042 0  0.5103803788357123 0.2099991225384938 0  0.5178486795839212 0.209999117267328 0  0.5253169836556427 0.2099991120642451 0  0.5327852842380156 0.209999107162699 0  0.5402535881717209 0.2099991029272095 0  0.5477218888713524 0.2099990995442025 0  0.5551901933423284 0.2099990950452957 0  0.5626584946247206 0.2099990881949212 0  0.5701267960842845 0.2099990951529885 0  0.5775951013883088 0.2099990996122688 0  0.585063402674412 0.2099991033302066 0  0.5925317064608361 0.2099991094907153 0  0.6000000084794759 0.2049991121799393 0  0.6000000042842637 0.1949991121329521 0  0.5925317017848237 0.1899991061997029 0  0.5850634013280989 0.1899990990971752 0  0.5775950972799406 0.1899990940542855 0  0.5701267969265273 0.1899990895277172 0  0.562658493362224 0.1899990827607437 0  0.5551901891984204 0.1899990886971388 0  0.5477218884671426 0.1899990917182126 0  0.5402535836782549 0.189999094681436 0  0.5327852830089093 0.1899990983647954 0  0.5253169780440681 0.1899991027959333 0  0.5178486766474454 0.189999107875082 0  0.5103803719354157 0.1899991134538951 0  0.5029120708011227 0.189999119435249 0  0.4954437663478888 0.1899991257695955 0  0.4879754650609267 0.1899991323972699 0  0.4805071607042065 0.1899991392995106 0  0.4730388589780866 0.1899991464211419 0  0.465570554782207 0.1899991537968814 0  0.4581022532827609 0.1899991613403569 0  0.4506339493635418 0.1899991690007434 0  0.4431656477713677 0.1899991767857552 0  0.4356973437908161 0.1899991846568792 0  0.428229041800016 0.1899991922127386 0  0.420760738133121 0.189999198140144 0  0.4132924348141107 0.1899992095738742 0  0.4058241330765254 0.189999219657643 0  0.3983558296285066 0.1899992289046351 0  0.3908875277367367 0.1899992383127425 0  0.3834192242208411 0.1899992478932296 0  0.3759509222306751 0.1899992577214583 0  0.3684826187251647 0.1899992679240497 0  0.3610143169736293 0.1899992774624678 0  0.3535460134358913 0.1899992859193625 0  0.3460777095647567 0.189999301635339 0  0.3386094078040471 0.1899993165280711 0  0.3311411038594132 0.1899993315249809 0  0.3236728025205222 0.1899993477490008 0  0.3162044987468405 0.1899993656604327 0  0.3087361975091148 0.1899993846375539 0  0.301267893623552 0.1899994043185319 0  0.2937995906847649 0.1899994346544285 0  0.2863312894133044 0.1899994681082224 0  0.2788629870560345 0.1899995067154363 0  0.2713946853791803 0.1899995543234956 0  0.2639263847052523 0.1899996180959012 0  0.256458085139451 0.1899997159859048 0  0
[...]
<PointData  Vectors="f_30-0"> 
<DataArray  type="Float64"  Name="f_30-0"  NumberOfComponents="3" format="ascii">0.0000000000000000e+00 0.0000000000000000e+00 0.0000000000000000e+00  0.0000000000000000e+00 0.0000000000000000e+00 0.0000000000000000e+00  0.0000000000000000e+00 0.0000000000000000e+00 0.0000000000000000e+00  0.0000000000000000e+00 0.0000000000000000e+00 0.0000000000000000e+00  6.5039399568174137e-03 -2.8785664754887270e-02 0.0000000000000000e+00  1.7458600056123135e-03 -2.5306000275745227e-02 0.0000000000000000e+00  0.0000000000000000e+00 0.0000000000000000e+00 0.0000000000000000e+00  0.0000000000000000e+00 0.0000000000000000e+00 0.0000000000000000e+00  0.0000000000000000e+00 0.0000000000000000e+00 0.0000000000000000e+00  0.0000000000000000e+00 0.0000000000000000e+00 0.0000000000000000e+00  1.7407177529586381e-02 -7.8496204078874129e-02 0.0000000000000000e+00  0.0000000000000000e+00 0.0000000000000000e+00 0.0000000000000000e+00  0.0000000000000000e+00 0.0000000000000000e+00 0.0000000000000000e+00  0.0000000000000000e+00 0.0000000000000000e+00 0.0000000000000000e+00  0.0000000000000000e+00 0.0000000000000000e+00 0.0000000000000000e+00  0.0000000000000000e+00 0.0000000000000000e+00 0.0000000000000000e+00  0.0000000000000000e+00 0.0000000000000000e+00 0.0000000000000000e+00  0.0000000000000000e+00 0.0000000000000000e+00 0.0000000000000000e+00  0.0000000000000000e+00 0.0000000000000000e+00 0.0000000000000000e+00  0.0000000000000000e+00 0.0000000000000000e+00 0.0000000000000000e+00  0.0000000000000000e+00 0.0000000000000000e+00 0.0000000000000000e+00  0.0000000000000000e+00 0.0000000000000000e+00 0.0000000000000000e+00  0.0000000000000000e+00 0.0000000000000000e+00 0.0000000000000000e+00  0.0000000000000000e+00 0.0000000000000000e+00 0.0000000000000000e+00  0.0000000000000000e+00 0.0000000000000000e+00 0.0000000000000000e+00  0.0000000000000000e+00 0.0000000000000000e+00 0.0000000000000000e+00  0.0000000000000000e+00 0.0000000000000000e+00 0.0000000000000000e+00  0.0000000000000000e+00 0.0000000000000000e+00 0.0000000000000000e+00  0.0000000000000000e+00 0.0000000000000000e+00 0.0000000000000000e+00  0.0000000000000000e+00 0.0000000000000000e+00 0.0000000000000000e+00  0.0000000000000000e+00 0.0000000000000000e+00 0.0000000000000000e+00  0.0000000000000000e+00 0.0000000000000000e+00 0.0000000000000000e+00  0.0000000000000000e+00 0.0000000000000000e+00 0.0000000000000000e+00  0.0000000000000000e+00 0.0000000000000000e+00 0.0000000000000000e+00  0.0000000000000000e+00 0.0000000000000000e+00 0.0000000000000000e+00  0.0000000000000000e+00 0.0000000000000000e+00 0.0000000000000000e+00  0.0000000000000000e+00 0.0000000000000000e+00 0.0000000000000000e+00  0.0000000000000000e+00 0.0000000000000000e+00 0.0000000000000000e+00  0.0000000000000000e+00 0.0000000000000000e+00 0.0000000000000000e+00  0.0000000000000000e+00 0.0000000000000000e+00 0.0000000000000000e+00  0.0000000000000000e+00 0.0000000000000000e+00 0.0000000000000000e+00  0.0000000000000000e+00 0.0000000000000000e+00 0.0000000000000000e+00  0.0000000000000000e+00 0.0000000000000000e+00 0.0000000000000000e+00  0.0000000000000000e+00 0.0000000000000000e+00 0.0000000000000000e+00  0.0000000000000000e+00 0.0000000000000000e+00 0.0000000000000000e+00  0.0000000000000000e+00 0.0000000000000000e+00 0.0000000000000000e+00  0.0000000000000000e+00 0.0000000000000000e+00 0.0000000000000000e+00  0.0000000000000000e+00 0.0000000000000000e+00 0.0000000000000000e+00  0.0000000000000000e+00 0.0000000000000000e+00 0.0000000000000000e+00  0.0000000000000000e+00 0.0000000000000000e+00 0.0000000000000000e+00  0.0000000000000000e+00 0.0000000000000000e+00 0.0000000000000000e+00  0.0000000000000000e+00 0.0000000000000000e+00 0.0000000000000000e+00  0.0000000000000000e+00 0.0000000000000000e+00 0.0000000000000000e+00  0.0000000000000000e+00 0.0000000000000000e+00 0.0000000000000000e+00  0.0000000000000000e+00 0.0000000000000000e+00 0.0000000000000000e+00  0.0000000000000000e+00 0.0000000000000000e+00 0.0000000000000000e+00  0.0000000000000000e+00 0.0000000000000000e+00 0.0000000000000000e+00  0.0000000000000000e+00 0.0000000000000000e+00 0.0000000000000000e+00  0.0000000000000000e+00 0.0000000000000000e+00 0.0000000000000000e+00  0.0000000000000000e+00 0.0000000000000000e+00 0.0000000000000000e+00  0.0000000000000000e+00 0.0000000000000000e+00 0.0000000000000000e+00  0.0000000000000000e+00 0.0000000000000000e+00 0.0000000000000000e+00  3.1295548932174343e-09 1.1831497648159429e-09 0.0000000000000000e+00  -1.2500574267696585e-10 1.4912108808212090e-09 0.0000000000000000e+00  -3.5653638450280268e-09 1.3708351774237441e-09 0.0000000000000000e+00  0.0000000000000000e+00 0.0000000000000000e+00 0.0000000000000000e+00  0.0000000000000000e+00 0.0000000000000000e+00 0.0000000000000000e+00  0.0000000000000000e+00 0.0000000000000000e+00 0.0000000000000000e+00  0.0000000000000000e+00 0.0000000000000000e+00 0.0000000000000000e+00  0.0000000000000000e+00 0.0000000000000000e+00 0.0000000000000000e+00  0.0000000000000000e+00 0.0000000000000000e+00 0.0000000000000000e+00  0.0000000000000000e+00 0.0000000000000000e+00 0.0000000000000000e+00  0.0000000000000000e+00 0.0000000000000000e+00 0.0000000000000000e+00  0.0000000000000000e+00 0.0000000000000000e+00 0.0000000000000000e+00  0.0000000000000000e+00 0.0000000000000000e+00 0.0000000000000000e+00  0.0000000000000000e+00 0.0000000000000000e+00 0.0000000000000000e+00  0.0000000000000000e+00 0.0000000000000000e+00 0.0000000000000000e+00  0.0000000000000000e+00 0.0000000000000000e+00 0.0000000000000000e+00  0.0000000000000000e+00 0.0000000000000000e+00 0.0000000000000000e+00  0.0000000000000000e+00 0.0000000000000000e+00 0.0000000000000000e+00  0.0000000000000000e+00 0.0000000000000000e+00 0.0000000000000000e+00  0.0000000000000000e+00 0.0000000000000000e+00 0.0000000000000000e+00  0.0000000000000000e+00 0.0000000000000000e+00 0.0000000000000000e+00  0.0000000000000000e+00 0.0000000000000000e+00 0.0000000000000000e+00  0.0000000000000000e+00 0.0000000000000000e+00 0.0000000000000000e+00  0.0000000000000000e+00 0.0000000000000000e+00 0.0000000000000000e+00  0.0000000000000000e+00 0.0000000000000000e+00 0.0000000000000000e+00  0.0000000000000000e+00 0.0000000000000000e+00 0.0000000000000000e+00  0.0000000000000000e+00 0.0000000000000000e+00 0.0000000000000000e+00  0.0000000000000000e+00 0.0000000000000000e+00 0.0000000000000000e+00  0.0000000000000000e+00 0.0000000000000000e+00 0.0000000000000000e+00  0.0000000000000000e+00 0.0000000000000000e+00 0.0000000000000000e+00  0.0000000000000000e+00 0.0000000000000000e+00 0.0000000000000000e+00  0.0000000000000000e+00 0.0000000000000000e+00 0.0000000000000000e+00  0.0000000000000000e+00 0.0000000000000000e+00 0.0000000000000000e+00  0.0000000000000000e+00 0.0000000000000000e+00 0.0000000000000000e+00  0.0000000000000000e+00 0.0000000000000000e+00 0.0000000000000000e+00  0.0000000000000000e+00 0.0000000000000000e+00 0.0000000000000000e+00  0.0000000000000000e+00 0.0000000000000000e+00 0.0000000000000000e+00  0.0000000000000000e+00 0.0000000000000000e+00 0.0000000000000000e+00  0.0000000000000000e+00 0.0000000000000000e+00 0.0000000000000000e+00  0.0000000000000000e+00 0.0000000000000000e+00 0.0000000000000000e+00  0.0000000000000000e+00 0.0000000000000000e+00 0.0000000000000000e+00  0.0000000000000000e+00 0.0000000000000000e+00 0.0000000000000000e+00  0.0000000000000000e+00 0.0000000000000000e+00 0.0000000000000000e+00  0.0000000000000000e+00 0.0000000000000000e+00 0.0000000000000000e+00  0.0000000000000000e+00 0.0000000000000000e+00 0.0000000000000000e+00  0.0000000000000000e+00 0.0000000000000000e+00 0.0000000000000000e+00  0.0000000000000000e+00 0.0000000000000000e+00 0.0000000000000000e+00  0.0000000000000000e+00 0.0000000000000000e+00 0.0000000000000000e+00  0.0000000000000000e+00 0.0000000000000000e+00 0.0000000000000000e+00  0.0000000000000000e+00 0.0000000000000000e+00 0.0000000000000000e+00  0.0000000000000000e+00 0.0000000000000000e+00 0.0000000000000000e+00  0.0000000000000000e+00 0.0000000000000000e+00 0.0000000000000000e+00  0.0000000000000000e+00 0.0000000000000000e+00 0.0000000000000000e+00  0.0000000000000000e+00 0.0000000000000000e+00 0.0000000000000000e+00  0.0000000000000000e+00 0.0000000000000000e+00 0.0000000000000000e+00  0.0000000000000000e+00 0.0000000000000000e+00 0.0000000000000000e+00  0.0000000000000000e+00 0.0000000000000000e+00 0.0000000000000000e+00  0.0000000000000000e+00 0.0000000000000000e+00 0.0000000000000000e+00  0.0000000000000000e+00 0.0000000000000000e+00 0.0000000000000000e+00  0.0000000000000000e+00 0.0000000000000000e+00 0.0000000000000000e+00  0.0000000000000000e+00 0.0000000000000000e+00 0.0000000000000000e+00  0.0000000000000000e+00 0.0000000000000000e+00 0.0000000000000000e+00  0.0000000000000000e+00 0.0000000000000000e+00 0.0000000000000000e+00  0.0000000000000000e+00 0.0000000000000000e+00 0.0000000000000000e+00  0.0000000000000000e+00 0.0000000000000000e+00 0.0000000000000000e+00  0.0000000000000000e+00 0.0000000000000000e+00 0.0000000000000000e+00  0.0000000000000000e+00 0.0000000000000000e+00 0.0000000000000000e+00  0.0000000000000000e+00 0.0000000000000000e+00 0.0000000000000000e+00  0.0000000000000000e+00 0.0000000000000000e+00 0.0000000000000000e+00  0.0000000000000000e+00 0.0000000000000000e+00 0.0000000000000000e+00  0.0000000000000000e+00 0.0000000000000000e+00 0.0000000000000000e+00  0.0000000000000000e+00 0.0000000000000000e+00 0.0000000000000000e+00  0.0000000000000000e+00 0.0000000000000000e+00 0.0000000000000000e+00  0.0000000000000000e+00 0.0000000000000000e+00 0.0000000000000000e+00  0.0000000000000000e+00 0.0000000000000000e+00 0.0000000000000000e+00  0.0000000000000000e+00 0.0000000000000000e+00 0.0000000000000000e+00  0.0000000000000000e+00 0.0000000000000000e+00 0.0000000000000000e+00  0.0000000000000000e+00 0.0000000000000000e+00 0.0000000000000000e+00  0.0000000000000000e+00 0.0000000000000000e+00 0.0000000000000000e+00  0.0000000000000000e+00 0.0000000000000000e+00 0.0000000000000000e+00  0.0000000000000000e+00 0.0000000000000000e+00 0.0000000000000000e+00  4.9551052541192693e-02 1.2034329888011294e-01 0.0000000000000000e+00  3.8625953078789362e-02 7.0802297991695656e-02 0.0000000000000000e+00  2.7613164141362008e-02 1.9431853304096906e-02 0.0000000000000000e+00  2.1073449512869481e-02 -3.0054640078574044e-02 0.0000000000000000e+00  1.2394014785633962e-02 -4.7254020708973166e-02 0.0000000000000000e+00  1.8928503248435417e-02 -8.1055570801631560e-02 0.0000000000000000e+00  1.6087057315635190e-02 -9.1425746617274692e-02 0.0000000000000000e+00  -3.1298267851195658e-03 -9.7437545488254701e-02 0.0000000000000000e+00  2.1318801173720977e-02 -8.9654124620884276e-02 0.0000000000000000e+00  -3.5726685439084623e-03 -9.4181107304851991e-02 0.0000000000000000e+00  1.9324406309572877e-02 -9.2830211006608460e-02 0.0000000000000000e+00  -3.6146857868072433e-03 -9.1320100217255673e-02 0.0000000000000000e+00  1.9777195360433555e-02 -9.3725628277490480e-02 0.0000000000000000e+00  6.3275537559674623e-04 -8.6966667714355392e-02 0.0000000000000000e+00  -1.6962851123996829e-03 -8.3030602226506156e-02 0.0000000000000000e+00  6.7531686802341367e-03 -7.4097641458480204e-02 0.0000000000000000e+00  -2.8367615729985884e-03 -7.6798775121104543e-02 0.0000000000000000e+00  7.3663039184489977e-03 -7.2028393195574261e-02 0.0000000000000000e+00  -4.5060515777142355e-03 -7.2522533915017007e-02 0.0000000000000000e+00  9.2539620558631450e-03 -7.1845722742886961e-02 0.0000000000000000e+00  -7.1413373245651805e-03 -7.1605332753044815e-02 0.0000000000000000e+00  1.2999299874413298e-02 -7.3405334304998307e-02 0.0000000000000000e+00  -3.8279157448360933e-03 -7.1689411593648569e-02 0.0000000000000000e+00  -6.9509477850395029e-03 -7.4851386167532605e-02 0.0000000000000000e+00  2.9271314713614728e-03 -7.7534955321768489e-02 0.0000000000000000e+00  -4.7611078615133022e-03 -7.9294755161321243e-02 0.0000000000000000e+00  2.9686665877882005e-03 -8.3386918129894502e-02 0.0000000000000000e+00  -9.2674948839015694e-03 -8.8648432427267082e-02 0.0000000000000000e+00  8.4688869361853204e-03 -9.0867487129533353e-02 0.0000000000000000e+00  -1.3808803399400455e-02 -9.4010550891323888e-02 0.0000000000000000e+00  1.0172271455674840e-02 -1.0007229962112421e-01 0.0000000000000000e+00  -1.2944870284063556e-02 -1.0183117399844949e-01 0.0000000000000000e+00  7.5108844057991666e-03 -1.1672524010794418e-01 0.0000000000000000e+00  -1.3770136919749053e-02 -1.2005520701736648e-01 0.0000000000000000e+00  8.3671705662109307e-03 -1.2043508956279653e-01 0.0000000000000000e+00  -1.7645014620107469e-02 -1.1929416718960832e-01 0.0000000000000000e+00  1.2002170209630902e-02 -1.2805624523239104e-01 0.0000000000000000e+00  -2.1584879992944863e-02 -1.4004296708615963e-01 0.0000000000000000e+00  1.5113739611322370e-02 -1.4944102754933650e-01 0.0000000000000000e+00  -1.9493889655065339e-02 -1.4105054465296932e-01 0.0000000000000000e+00  1.4156167342447784e-02 -1.5165619746597866e-01 0.0000000000000000e+00  8.5993583014686557e-04 -1.4663188122114534e-01 0.0000000000000000e+00  -2.0630396850458203e-02 -1.4252828590612809e-01 0.0000000000000000e+00  1.7302564934282026e-02 -1.2394962923267701e-01 0.0000000000000000e+00  -8.8466955796114664e-03 -1.3314687340417394e-01 0.0000000000000000e+00  3.3647943716028264e-02 -1.0044485723103441e-01 0.0000000000000000e+00  3.4944532073796400e-02 -7.2597519090224882e-02 0.0000000000000000e+00  -1.8394473872766944e-02 -6.1541928556236400e-02 0.0000000000000000e+00  -6.0647657309186769e-03 -8.6927472167446174e-02 0.0000000000000000e+00  2.3696104205602555e-02 -1.1923559342361739e-01 0.0000000000000000e+00  -5.0257006971327657e-03 -1.2573258016579852e-01 0.0000000000000000e+00  2.4780649858144519e-02 -1.4573942658007283e-01 0.0000000000000000e+00  7.1139320658196925e-03 -1.3683630964114724e-01 0.0000000000000000e+00  -1.6221214982591877e-02 -1.4581553811771708e-01 0.0000000000000000e+00  2.1533311278612282e-02 -1.3207516806655781e-01 0.0000000000000000e+00  -1.6352113187285081e-02 -1.3255494062778145e-01 0.0000000000000000e+00  1.8791641274143140e-02 -1.3009277884969409e-01 0.0000000000000000e+00  -1.5021781766261929e-02 -1.2815408815986359e-01 0.0000000000000000e+00  1.5158212099117831e-02 -1.1964424995001452e-01 0.0000000000000000e+00  -1.4476890163802216e-02 -1.1406222260532783e-01 0.0000000000000000e+00  1.3823634060557003e-02 -1.0417837071539919e-01 0.0000000000000000e+00  -1.4518880226597679e-02 -1.0066142089704262e-01 0.0000000000000000e+00  1.1172603373380116e-02 -9.6635757789182264e-02 0.0000000000000000e+00  -1.3031742749665794e-02 -9.4571490797478078e-02 0.0000000000000000e+00  9.5359781195552464e-03 -8.9312157735937536e-02 0.0000000000000000e+00  -1.2372807955293082e-02 -8.5200298219292384e-02 0.0000000000000000e+00  8.7714567228851861e-03 -7.8774109933721165e-02 0.0000000000000000e+00  -1.1766932236807737e-02 -7.6780405492450618e-02 0.0000000000000000e+00  8.0553715741266980e-03 -7.5381418173923159e-02 0.0000000000000000e+00  -1.0522136534991785e-02 -7.3177852888949638e-02 0.0000000000000000e+00  8.2829427130148119e-03 -7.5055841022094866e-02 0.0000000000000000e+00  -3.8106778769686914e-03 -7.1929203170011918e-02 0.0000000000000000e+00  -9.5879919633391451e-03 -7.3151164564371055e-02 0.0000000000000000e+00  1.9059277900190148e-03 -6.9270697798071545e-02 0.0000000000000000e+00  -8.7243598984002857e-03 -7.4051071839858845e-02 0.0000000000000000e+00  2.9973272225761677e-03 -7.7595603718856418e-02 0.0000000000000000e+00  -8.1865608315074903e-03 -7.9105212550564283e-02 0.0000000000000000e+00  3.1670892405592241e-03 -8.0396616195473766e-02 0.0000000000000000e+00  -7.6873696217676290e-03 -7.7837429312341277e-02 0.0000000000000000e+00  3.9279774842279815e-03 -8.3151010880912035e-02 0.0000000000000000e+00  1.1008709337074194e-04 -8.6631933141672210e-02 0.0000000000000000e+00  -1.9448588274838169e-02 -9.4385540523604941e-02 0.0000000000000000e+00  5.1858419761555601e-03 -9.2566324712236733e-02 0.0000000000000000e+00  -2.0717127162556866e-02 -9.5946022889699167e-02 0.0000000000000000e+00  5.3887748533896123e-03 -9.7024194573783112e-02 0.0000000000000000e+00  -2.2574341171166804e-02 -9.4178941503867061e-02 0.0000000000000000e+00  4.3886751739215394e-03 -9.6406558827747152e-02 0.0000000000000000e+00  -1.6523896906291826e-02 -8.9227512569740181e-02 0.0000000000000000e+00  -2.1796010964557827e-02 -8.1282231771205596e-02 0.0000000000000000e+00  -1.4797006627242221e-02 -4.9460622398343444e-02 0.0000000000000000e+00  -2.3705984811659274e-02 -3.1598778564469257e-02 0.0000000000000000e+00  -2.8661855384994529e-02 1.7096926843533714e-02 0.0000000000000000e+00  -3.9813678298835704e-02 6.9381928956355782e-02 0.0000000000000000e+00  -5.2002641205112665e-02 1.2140700715341296e-01 0.0000000000000000e+00  -1.0090786924353010e-03 -4.0299505305898112e-02 0.0000000000000000e+00  -2.8233115568020170e-03 7.4309791100000300e-02 0.0000000000000000e+00  -1.5909356195163090e-03 1.0285162551457880e-01 0.0000000000000000e+00  4.5160892953805369e-03 1.1425463226550633e-01 0.0000000000000000e+00  3.5017286521697071e-04 5.6821632515218741e-03 0.0000000000000000e+00  2.4943438053957537e-04 1.0897633104001803e-01 0.0000000000000000e+00  6.3892320696619191e-04 4.6553998204642913e-02 0.0000000000000000e+00  1.9815945228640706e-04 9.9914823982529780e-02 0.0000000000000000e+00  2.5297570527506139e-03 7.6168133386602499e-02 0.0000000000000000e+00  3.8685048459931412e-04 7.5858437132326484e-02 0.0000000000000000e+00  -8.3255504155536897e-04 9.1089040331759324e-02 0.0000000000000000e+00  2.0275713795461750e-03 6.4443611421055216e-02 0.0000000000000000e+00  -8.5966451694205988e-05 7.4595165117796153e-02 0.0000000000000000e+00  -1.9918414885583139e-03 7.0253196701392281e-02 0.0000000000000000e+00  -5.4327272266116557e-05 6.1266085696024541e-02 0.0000000000000000e+00  -3.8911275276993671e-04 6.8411980331992056e-02 0.0000000000000000e+00  3.2793191345507395e-04 8.2541976604615555e-02 0.0000000000000000e+00  -1.0163903062879291e-03 5.9187309290512552e-02 0.0000000000000000e+00  1.6855793117738930e-04 6.2889005689742344e-02 0.0000000000000000e+00  -5.2000489980025104e-04 5.6550457037043145e-02 0.0000000000000000e+00  -1.7229899086875985e-03 5.9108580006216917e-02 0.0000000000000000e+00  7.8097386475702924e-04 4.6792532172127463e-02 0.0000000000000000e+00  -2.5864075631327262e-04 5.4690724852176416e-02 0.0000000000000000e+00  -7.5709395445923791e-04 9.7961748064745446e-02 0.0000000000000000e+00  4.7560699842069248e-04 5.7663197983597175e-02 0.0000000000000000e+00  7.7733150059940866e-03 7.8537831843433784e-02 0.0000000000000000e+00  -1.9708699528721677e-02 -2.1740214946808240e-02 0.0000000000000000e+00  -3.3466923194161754e-03 7.1695584983198668e-02 0.0000000000000000e+00  -5.0669565368168723e-03 7.9631647111623877e-02 0.0000000000000000e+00  1.1924069813065161e-02 3.2426309650164277e-02 0.0000000000000000e+00  -4.2573444404620103e-03 5.3903529561115292e-02 0.0000000000000000e+00  -2.4668534222227149e-03 5.3679435404642595e-02 0.0000000000000000e+00  -2.0441904643676524e-03 6.5105598632316963e-02 0.0000000000000000e+00  -3.2632304697335175e-03 4.3788302859335063e-02 0.0000000000000000e+00  -8.3101379347568470e-04 4.8600747638142025e-02 0.0000000000000000e+00  -1.6606435219892865e-03 5.0187200772242799e-02 0.0000000000000000e+00  -1.0056307243718414e-03 4.2901104947083962e-02 0.0000000000000000e+00  -1.0693730230284899e-03 4.6298018404705314e-02 0.0000000000000000e+00  -2.4127645305965289e-03 6.1617830150711678e-02 0.0000000000000000e+00  6.2551843110721257e-04 4.4870351063685879e-02 0.0000000000000000e+00  3.5506791420598677e-04 4.1210596625320839e-02 0.0000000000000000e+00  -1.0358978864906238e-02 -6.0017786261053106e-02 0.0000000000000000e+00  8.4034071637419695e-03 -5.8232480070940458e-02 0.0000000000000000e+00  -3.1408385914799421e-02 5.1514431397533027e-02 0.0000000000000000e+00  1.9025991224242152e-02 -2.2188252131980012e-02 0