<?xml version="1.0"?>
<VTKFile type="UnstructuredGrid"  version="0.1"  >
<UnstructuredGrid>
<Piece  NumberOfPoints="1419" NumberOfCells="2698">
<Points>
<DataArray  type="Float64"  NumberOfComponents="3"  format="ascii">2.035820596166836e-08 -1.512717038988535e-06 0  3.820553862337184e-08 0.4099984806033729 0  2.500000069325721 -2.231623360725094e-06 0  2.500000069325737 0.4099977683766577 0  0.6000000763184909 0.1899976966498494 0  0.600000090929297 0.2099976977551183 0  0.25 0.2 0  0.1500000286805271 0.1999984979528759 0  0.2489897948556636 0.21 0  0.2489897948556636 0.19 0  0.6000000870287503 0.1999976884540402 0  3.799919289583728e-08 0.3807127667693541 0  3.741206671334703e-08 0.3514270537122863 0  3.642801115365853e-08 0.3221413412498701 0  3.505164447564599e-08 0.2928556289886531 0  3.335476111772985e-08 0.2635699166258516 0  3.140391980791237e-08 0.2342842039587271 0  2.928027210337001e-08 0.2049984906831584 0  2.715537984423346e-08 0.1757127768503161 0  2.518281136855072e-08 0.1464270624030146 0  2.34589791786488e-08 0.1171413474556365 0  2.211670624493809e-08 0.0878556321931584 0  2.112887388498253e-08 0.05856991688669806 0  2.054415318238405e-08 0.02928420183546399 0  0.03015445776508529 -1.51301744131438e-06 0  0.06140003938734067 -1.514106053323904e-06 0  0.09377625918019783 -1.516575833200914e-06 0  0.1273240125999132 -1.521462779938586e-06 0  0.1620857009801114 -1.530628922498463e-06 0  0.1981052562892419 -1.54864615978506e-06 0  0.235428195530369 -1.58236535625468e-06 0  0.2741016686201775 -1.63623620875657e-06 0  0.3141745641941546 -1.710928515930665e-06 0  0.3556975079414608 -1.803568409852824e-06 0  0.3987229748128084 -1.903084853711511e-06 0  0.443305333158899 -1.997852394212705e-06 0  0.4895009118644029 -2.080192741220107e-06 0  0.5373681053998417 -2.143391148998599e-06 0  0.5869673864395059 -2.185512008919491e-06 0  0.6383614259079222 -2.211048573681297e-06 0  0.6916151762936207 -2.223574190994858e-06 0  0.7467959246723893 -2.229044372488883e-06 0  0.8039734131710016 -2.231248237082934e-06 0  0.8632198817426373 -2.231962666567407e-06 0  0.9246102010976325 -2.23207162212197e-06 0  0.9882219498638255 -2.231983492930468e-06 0  1.054135514558588 -2.231876238214937e-06 0  1.122434169673887 -2.231786733453199e-06 0  1.193204246355928 -2.23172178275109e-06 0  1.266535159143101 -2.231680305878302e-06 0  1.342519585337179 -2.231655875598108e-06 0  1.421253517810456 -2.231641398410446e-06 0  1.502836458421893 -2.231632900155801e-06 0  1.587371509079323 -2.23162832167197e-06 0  1.674965488100421 -2.23162589772196e-06 0  1.765729071149951 -2.231624607428762e-06 0  1.859776978205157 -2.231623973043015e-06 0  1.957228046812487 -2.23162364037929e-06 0  2.058205399195528 -2.231623488929443e-06 0  2.162836660515617 -2.231623411635863e-06 0  2.271254026616564 -2.231623378882878e-06 0  2.383594516129139 -2.231623364865674e-06 0  2.500000069325721 0.1024977683764031 0  2.500000069325729 0.2049977683761227 0  2.500000069325736 0.3074977683763733 0  2.383594516129398 0.4099977683766619 0  2.271254026617072 0.4099977683766763 0  2.162836660516393 0.4099977683767105 0  2.058205399196647 0.4099977683767843 0  1.957228046814096 0.4099977683769341 0  1.859776978207642 0.4099977683772831 0  1.765729071153914 0.4099977683779154 0  1.674965488107287 0.4099977683792594 0  1.587371509091425 0.4099977683816908 0  1.502836458443797 0.4099977683863229 0  1.421253517850819 0.4099977683952785 0  1.34251958540887 0.4099977684104978 0  1.266535159268582 0.4099977684371232 0  1.193204246577777 0.409997768487301 0  1.122434170058392 0.4099977685773761 0  1.054135515195079 0.4099977687281718 0  0.9882219509273049 0.4099977690273879 0  0.924610202814414 0.409997769577829 0  0.8632198844920053 0.4099977706339484 0  0.8039734174755305 0.409997772750839 0  0.7467959312726551 0.4099977770064455 0  0.6916151860721267 0.4099977853186636 0  0.6383614399079416 0.4099978015572021 0  0.586967405727207 0.4099978295983805 0  0.5373681305483246 0.4099978732013291 0  0.4895009430689677 0.4099979357365751 0  0.4433053700604521 0.4099980142127244 0  0.3987230162194192 0.4099981033033226 0  0.3556975519210259 0.4099981956440835 0  0.3141746084973138 0.4099982818153665 0  0.2741017108058309 0.4099983532409482 0  0.2354282340310991 0.4099984044834359 0  0.1981052901921741 0.4099984381240451 0  0.1620857301911204 0.409998457844949 0  0.1273240376751138 0.409998468837911 0  0.09377628099133271 0.4099984751708243 0  0.06140005893656455 0.4099984784640731 0  0.03015447599675537 0.4099984801757133 0  0.2497468076502589 0.2050254481002335 0  0.2497468076502614 0.1949745518997913 0  0.246996515222022 0.182930972298713 0  0.2439893649447553 0.1762306414642045 0  0.2400332089251177 0.1700431868375094 0  0.2352133943587703 0.1645020388573988 0  0.2296339015538858 0.1597267091111902 0  0.2234150999847068 0.1558202085673763 0  0.216691151350247 0.1528668072471835 0  0.2096071151588602 0.1509302161978585 0  0.2023158194338743 0.1500522098964107 0  0.1949745632890591 0.15025172938163 0  0.1877417238606228 0.1515244677712964 0  0.1807733391925494 0.1538429668871912 0  0.1742197422314126 0.157157207172488 0  0.1682223173379214 0.1613956883084139 0  0.1629104504006339 0.1664669704672782 0  0.1583987372453338 0.1722616478849461 0  0.154784511661285 0.1786547084166447 0  0.1521457453220763 0.1855082309260558 0  0.1505393659021002 0.1926743604011091 0  0.1505393691587182 0.2073226358581479 0  0.152145751866996 0.2144887664410567 0  0.1547845214256852 0.2213422908703928 0  0.158398750281681 0.2277353543744334 0  0.1629104666593582 0.2335300360093144 0  0.1682223368841938 0.2386013242516027 0  0.1742197649994914 0.2428398135689762 0  0.1807733652417759 0.2461540652029758 0  0.1877417531837746 0.248472579913824 0  0.1949745959093817 0.2497453397881218 0  0.2023158553157159 0.2499448876622148 0  0.2096071543768901 0.2490669209676272 0  0.2166911937964402 0.2471303820217941 0  0.2234151456419046 0.2441770534473511 0  0.2296339502646252 0.2402706515093211 0  0.2352134457169782 0.235495461080141 0  0.2400332620887019 0.2299545078323341 0  0.2439894175475762 0.223767360095901 0  0.2469965606452824 0.2170675541734969 0  0.2564581414238687 0.209999282849645 0  0.2639264550122655 0.2099990406707943 0  0.2713947669585861 0.2099988830848155 0  0.2788630687693927 0.2099987609923029 0  0.2863313723580955 0.2099986592429062 0  0.2937996747958065 0.2099985698356361 0  0.3012679770522323 0.2099984887224907 0  0.3087362782983704 0.2099984264628943 0  0.316204584592395 0.209998367425475 0  0.3236728849866174 0.2099983128074684 0  0.3311411921176565 0.2099982630580682 0  0.3386094917636275 0.2099982172513749 0  0.3460777979179106 0.2099981729911102 0  0.3535460982692624 0.2099981248579211 0  0.3610143983477471 0.2099981008490061 0  0.3684827029514511 0.2099980725990361 0  0.3759510008516005 0.2099980427405276 0  0.3834193049236179 0.2099980148807847 0  0.3908876023852798 0.2099979877146461 0  0.3983559063931643 0.2099979620592812 0  0.4058242032696112 0.2099979363065617 0  0.4132925066674322 0.2099979089614177 0  0.4207608035552487 0.2099978753828632 0  0.428229102648673 0.2099978628366894 0  0.4356974063715032 0.2099978447604795 0  0.443165705153522 0.2099978251154511 0  0.4506340098259374 0.2099978050245079 0  0.4581023088980078 0.2099977861185674 0  0.4655706147942331 0.2099977680238933 0  0.4730389140540053 0.2099977508670274 0  0.4805072210938447 0.2099977342782425 0  0.4879755214647014 0.2099977190085027 0  0.4954438304120435 0.2099977029427983 0  0.5029121313844628 0.2099976907888795 0  0.5103804407504933 0.20999768177202 0  0.5178487422527963 0.209997673472564 0  0.5253170531985125 0.2099976647889437 0  0.5327853550895075 0.2099976563156614 0  0.5402536663171534 0.2099976503856267 0  0.5477219690383989 0.2099976474082317 0  0.5551902805899426 0.2099976424223753 0  0.5626585846022123 0.209997631102386 0  0.570126885322196 0.2099976510041547 0  0.5775951935511167 0.2099976640244397 0  0.5850634933127952 0.209997670810929 0  0.5925317961318023 0.2099976832089386 0  0.6000000922925516 0.20499769105213 0  0.6000000793298795 0.1949976928155341 0  0.5925317734076588 0.189997682239296 0  0.5850634745014024 0.189997666281202 0  0.5775951672497029 0.1899976526969919 0  0.5701268667531694 0.1899976395374406 0  0.5626585602680179 0.1899976209378268 0  0.5551902517659205 0.1899976288931689 0  0.5477219511012862 0.1899976300232716 0  0.5402536403871713 0.1899976315483669 0  0.5327853399200586 0.1899976354673015 0  0.5253170280537897 0.1899976414466981 0  0.5178487260131726 0.1899976490805368 0  0.5103804147570649 0.1899976579251168 0  0.5029121141347248 0.1899976681469882 0  0.4954438030033296 0.1899976806813142 0  0.4879755023955709 0.1899976953843318 0  0.4805071918199877 0.1899977117446417 0  0.4730388902270887 0.189997729059327 0  0.4655705803548008 0.1899977475558392 0  0.458102280116858 0.1899977669590297 0  0.4506339717268883 0.1899977874978293 0  0.443165671488076 0.1899978089215012 0  0.4356973630884965 0.1899978309452563 0  0.4282290616062966 0.1899978520752174 0  0.4207607545679582 0.1899978677669692 0  0.4132924489328517 0.1899979024056363 0  0.405824148553477 0.1899979328245927 0  0.398355842438255 0.1899979604816112 0  0.3908875412711788 0.1899979886527522 0  0.3834192348262041 0.189998017154737 0  0.375950933204548 0.1899980463505766 0  0.3684826269655553 0.1899980765376505 0  0.3610143261697163 0.1899981051064996 0  0.3535460198485262 0.1899981308456107 0  0.3460777123253667 0.1899981788649417 0  0.3386094105309652 0.1899982246247164 0  0.3311411031348078 0.189998270933097 0  0.3236728024518893 0.1899983206306186 0  0.3162044966116716 0.1899983749416352 0  0.3087361963489693 0.1899984328095386 0  0.3012678912728864 0.1899984943274548 0  0.293799588342842 0.1899985745620127 0  0.286331285534305 0.1899986633094678 0  0.2788629833163156 0.1899987643483212 0  0.2713946756769622 0.1899988875032255 0  0.2639263750330892 0.1899990483628401 0  0.2564580745438374 0.1899992876694766 0  0.
[...]
<PointData  Vectors="f_30-0"> 
<DataArray  type="Float64"  Name="f_30-0"  NumberOfComponents="3" format="ascii">0.0000000000000000e+00 0.0000000000000000e+00 0.0000000000000000e+00  0.0000000000000000e+00 0.0000000000000000e+00 0.0000000000000000e+00  0.0000000000000000e+00 0.0000000000000000e+00 0.0000000000000000e+00  0.0000000000000000e+00 0.0000000000000000e+00 0.0000000000000000e+00  1.6901443207315882e-02 -7.2723236797657104e-02 0.0000000000000000e+00  4.4762227353680802e-02 -6.5820541397007881e-02 0.0000000000000000e+00  0.0000000000000000e+00 0.0000000000000000e+00 0.0000000000000000e+00  0.0000000000000000e+00 0.0000000000000000e+00 0.0000000000000000e+00  0.0000000000000000e+00 0.0000000000000000e+00 0.0000000000000000e+00  0.0000000000000000e+00 0.0000000000000000e+00 0.0000000000000000e+00  8.1409138557809457e-02 -1.6310318659552620e-01 0.0000000000000000e+00  0.0000000000000000e+00 0.0000000000000000e+00 0.0000000000000000e+00  0.0000000000000000e+00 0.0000000000000000e+00 0.0000000000000000e+00  0.0000000000000000e+00 0.0000000000000000e+00 0.0000000000000000e+00  0.0000000000000000e+00 0.0000000000000000e+00 0.0000000000000000e+00  0.0000000000000000e+00 0.0000000000000000e+00 0.0000000000000000e+00  0.0000000000000000e+00 0.0000000000000000e+00 0.0000000000000000e+00  0.0000000000000000e+00 0.0000000000000000e+00 0.0000000000000000e+00  0.0000000000000000e+00 0.0000000000000000e+00 0.0000000000000000e+00  0.0000000000000000e+00 0.0000000000000000e+00 0.0000000000000000e+00  0.0000000000000000e+00 0.0000000000000000e+00 0.0000000000000000e+00  0.0000000000000000e+00 0.0000000000000000e+00 0.0000000000000000e+00  0.0000000000000000e+00 0.0000000000000000e+00 0.0000000000000000e+00  0.0000000000000000e+00 0.0000000000000000e+00 0.0000000000000000e+00  0.0000000000000000e+00 0.0000000000000000e+00 0.0000000000000000e+00  0.0000000000000000e+00 0.0000000000000000e+00 0.0000000000000000e+00  0.0000000000000000e+00 0.0000000000000000e+00 0.0000000000000000e+00  0.0000000000000000e+00 0.0000000000000000e+00 0.0000000000000000e+00  0.0000000000000000e+00 0.0000000000000000e+00 0.0000000000000000e+00  0.0000000000000000e+00 0.0000000000000000e+00 0.0000000000000000e+00  0.0000000000000000e+00 0.0000000000000000e+00 0.0000000000000000e+00  0.0000000000000000e+00 0.0000000000000000e+00 0.0000000000000000e+00  0.0000000000000000e+00 0.0000000000000000e+00 0.0000000000000000e+00  0.0000000000000000e+00 0.0000000000000000e+00 0.0000000000000000e+00  0.0000000000000000e+00 0.0000000000000000e+00 0.0000000000000000e+00  0.0000000000000000e+00 0.0000000000000000e+00 0.0000000000000000e+00  0.0000000000000000e+00 0.0000000000000000e+00 0.0000000000000000e+00  0.0000000000000000e+00 0.0000000000000000e+00 0.0000000000000000e+00  0.0000000000000000e+00 0.0000000000000000e+00 0.0000000000000000e+00  0.0000000000000000e+00 0.0000000000000000e+00 0.0000000000000000e+00  0.0000000000000000e+00 0.0000000000000000e+00 0.0000000000000000e+00  0.0000000000000000e+00 0.0000000000000000e+00 0.0000000000000000e+00  0.0000000000000000e+00 0.0000000000000000e+00 0.0000000000000000e+00  0.0000000000000000e+00 0.0000000000000000e+00 0.0000000000000000e+00  0.0000000000000000e+00 0.0000000000000000e+00 0.0000000000000000e+00  0.0000000000000000e+00 0.0000000000000000e+00 0.0000000000000000e+00  0.0000000000000000e+00 0.0000000000000000e+00 0.0000000000000000e+00  0.0000000000000000e+00 0.0000000000000000e+00 0.0000000000000000e+00  0.0000000000000000e+00 0.0000000000000000e+00 0.0000000000000000e+00  0.0000000000000000e+00 0.0000000000000000e+00 0.0000000000000000e+00  0.0000000000000000e+00 0.0000000000000000e+00 0.0000000000000000e+00  0.0000000000000000e+00 0.0000000000000000e+00 0.0000000000000000e+00  0.0000000000000000e+00 0.0000000000000000e+00 0.0000000000000000e+00  0.0000000000000000e+00 0.0000000000000000e+00 0.0000000000000000e+00  0.0000000000000000e+00 0.0000000000000000e+00 0.0000000000000000e+00  0.0000000000000000e+00 0.0000000000000000e+00 0.0000000000000000e+00  0.0000000000000000e+00 0.0000000000000000e+00 0.0000000000000000e+00  0.0000000000000000e+00 0.0000000000000000e+00 0.0000000000000000e+00  0.0000000000000000e+00 0.0000000000000000e+00 0.0000000000000000e+00  0.0000000000000000e+00 0.0000000000000000e+00 0.0000000000000000e+00  0.0000000000000000e+00 0.0000000000000000e+00 0.0000000000000000e+00  0.0000000000000000e+00 0.0000000000000000e+00 0.0000000000000000e+00  7.0289293112330211e-09 2.2871188014325477e-09 0.0000000000000000e+00  -2.1343059776866320e-10 3.1003011276294646e-09 0.0000000000000000e+00  -7.2681780189881897e-09 2.7315302259354958e-09 0.0000000000000000e+00  0.0000000000000000e+00 0.0000000000000000e+00 0.0000000000000000e+00  0.0000000000000000e+00 0.0000000000000000e+00 0.0000000000000000e+00  0.0000000000000000e+00 0.0000000000000000e+00 0.0000000000000000e+00  0.0000000000000000e+00 0.0000000000000000e+00 0.0000000000000000e+00  0.0000000000000000e+00 0.0000000000000000e+00 0.0000000000000000e+00  0.0000000000000000e+00 0.0000000000000000e+00 0.0000000000000000e+00  0.0000000000000000e+00 0.0000000000000000e+00 0.0000000000000000e+00  0.0000000000000000e+00 0.0000000000000000e+00 0.0000000000000000e+00  0.0000000000000000e+00 0.0000000000000000e+00 0.0000000000000000e+00  0.0000000000000000e+00 0.0000000000000000e+00 0.0000000000000000e+00  0.0000000000000000e+00 0.0000000000000000e+00 0.0000000000000000e+00  0.0000000000000000e+00 0.0000000000000000e+00 0.0000000000000000e+00  0.0000000000000000e+00 0.0000000000000000e+00 0.0000000000000000e+00  0.0000000000000000e+00 0.0000000000000000e+00 0.0000000000000000e+00  0.0000000000000000e+00 0.0000000000000000e+00 0.0000000000000000e+00  0.0000000000000000e+00 0.0000000000000000e+00 0.0000000000000000e+00  0.0000000000000000e+00 0.0000000000000000e+00 0.0000000000000000e+00  0.0000000000000000e+00 0.0000000000000000e+00 0.0000000000000000e+00  0.0000000000000000e+00 0.0000000000000000e+00 0.0000000000000000e+00  0.0000000000000000e+00 0.0000000000000000e+00 0.0000000000000000e+00  0.0000000000000000e+00 0.0000000000000000e+00 0.0000000000000000e+00  0.0000000000000000e+00 0.0000000000000000e+00 0.0000000000000000e+00  0.0000000000000000e+00 0.0000000000000000e+00 0.0000000000000000e+00  0.0000000000000000e+00 0.0000000000000000e+00 0.0000000000000000e+00  0.0000000000000000e+00 0.0000000000000000e+00 0.0000000000000000e+00  0.0000000000000000e+00 0.0000000000000000e+00 0.0000000000000000e+00  0.0000000000000000e+00 0.0000000000000000e+00 0.0000000000000000e+00  0.0000000000000000e+00 0.0000000000000000e+00 0.0000000000000000e+00  0.0000000000000000e+00 0.0000000000000000e+00 0.0000000000000000e+00  0.0000000000000000e+00 0.0000000000000000e+00 0.0000000000000000e+00  0.0000000000000000e+00 0.0000000000000000e+00 0.0000000000000000e+00  0.0000000000000000e+00 0.0000000000000000e+00 0.0000000000000000e+00  0.0000000000000000e+00 0.0000000000000000e+00 0.0000000000000000e+00  0.0000000000000000e+00 0.0000000000000000e+00 0.0000000000000000e+00  0.0000000000000000e+00 0.0000000000000000e+00 0.0000000000000000e+00  0.0000000000000000e+00 0.0000000000000000e+00 0.0000000000000000e+00  0.0000000000000000e+00 0.0000000000000000e+00 0.0000000000000000e+00  0.0000000000000000e+00 0.0000000000000000e+00 0.0000000000000000e+00  0.0000000000000000e+00 0.0000000000000000e+00 0.0000000000000000e+00  0.0000000000000000e+00 0.0000000000000000e+00 0.0000000000000000e+00  0.0000000000000000e+00 0.0000000000000000e+00 0.0000000000000000e+00  0.0000000000000000e+00 0.0000000000000000e+00 0.0000000000000000e+00  0.0000000000000000e+00 0.0000000000000000e+00 0.0000000000000000e+00  0.0000000000000000e+00 0.0000000000000000e+00 0.0000000000000000e+00  0.0000000000000000e+00 0.0000000000000000e+00 0.0000000000000000e+00  0.0000000000000000e+00 0.0000000000000000e+00 0.0000000000000000e+00  0.0000000000000000e+00 0.0000000000000000e+00 0.0000000000000000e+00  0.0000000000000000e+00 0.0000000000000000e+00 0.0000000000000000e+00  0.0000000000000000e+00 0.0000000000000000e+00 0.0000000000000000e+00  0.0000000000000000e+00 0.0000000000000000e+00 0.0000000000000000e+00  0.0000000000000000e+00 0.0000000000000000e+00 0.0000000000000000e+00  0.0000000000000000e+00 0.0000000000000000e+00 0.0000000000000000e+00  0.0000000000000000e+00 0.0000000000000000e+00 0.0000000000000000e+00  0.0000000000000000e+00 0.0000000000000000e+00 0.0000000000000000e+00  0.0000000000000000e+00 0.0000000000000000e+00 0.0000000000000000e+00  0.0000000000000000e+00 0.0000000000000000e+00 0.0000000000000000e+00  0.0000000000000000e+00 0.0000000000000000e+00 0.0000000000000000e+00  0.0000000000000000e+00 0.0000000000000000e+00 0.0000000000000000e+00  0.0000000000000000e+00 0.0000000000000000e+00 0.0000000000000000e+00  0.0000000000000000e+00 0.0000000000000000e+00 0.0000000000000000e+00  0.0000000000000000e+00 0.0000000000000000e+00 0.0000000000000000e+00  0.0000000000000000e+00 0.0000000000000000e+00 0.0000000000000000e+00  0.0000000000000000e+00 0.0000000000000000e+00 0.0000000000000000e+00  0.0000000000000000e+00 0.0000000000000000e+00 0.0000000000000000e+00  0.0000000000000000e+00 0.0000000000000000e+00 0.0000000000000000e+00  0.0000000000000000e+00 0.0000000000000000e+00 0.0000000000000000e+00  0.0000000000000000e+00 0.0000000000000000e+00 0.0000000000000000e+00  0.0000000000000000e+00 0.0000000000000000e+00 0.0000000000000000e+00  0.0000000000000000e+00 0.0000000000000000e+00 0.0000000000000000e+00  0.0000000000000000e+00 0.0000000000000000e+00 0.0000000000000000e+00  0.0000000000000000e+00 0.0000000000000000e+00 0.0000000000000000e+00  0.0000000000000000e+00 0.0000000000000000e+00 0.0000000000000000e+00  0.0000000000000000e+00 0.0000000000000000e+00 0.0000000000000000e+00  0.0000000000000000e+00 0.0000000000000000e+00 0.0000000000000000e+00  0.0000000000000000e+00 0.0000000000000000e+00 0.0000000000000000e+00  0.0000000000000000e+00 0.0000000000000000e+00 0.0000000000000000e+00  0.0000000000000000e+00 0.0000000000000000e+00 0.0000000000000000e+00  0.0000000000000000e+00 0.0000000000000000e+00 0.0000000000000000e+00  1.0745420688317787e-01 3.8058870451644450e-01 0.0000000000000000e+00  8.5905040835371788e-02 3.1912512327796999e-01 0.0000000000000000e+00  1.0594216232995991e-01 2.1570278583413593e-01 0.0000000000000000e+00  4.7547722916366407e-02 8.8523316255562340e-02 0.0000000000000000e+00  4.6038988100642705e-02 2.2406604861884068e-02 0.0000000000000000e+00  2.7043118363182059e-02 -7.2222907697912259e-02 0.0000000000000000e+00  3.7834489072401105e-02 -1.2454722231794153e-01 0.0000000000000000e+00  -9.6091282179210369e-03 -1.6698138402366305e-01 0.0000000000000000e+00  3.8953784705596482e-02 -1.8554652603444646e-01 0.0000000000000000e+00  -1.1657874563721228e-02 -2.0445183671755432e-01 0.0000000000000000e+00  4.1895713447331492e-02 -2.2965501879374339e-01 0.0000000000000000e+00  -9.6090312394940692e-03 -2.3200168493538709e-01 0.0000000000000000e+00  5.4259050951866929e-02 -2.5951903300033657e-01 0.0000000000000000e+00  9.6818662738078001e-03 -2.6357668034808174e-01 0.0000000000000000e+00  3.3836272049151154e-03 -2.4488633117816297e-01 0.0000000000000000e+00  2.7241766879448993e-02 -2.1465684681494338e-01 0.0000000000000000e+00  -2.4185026386300394e-03 -2.3217062638239322e-01 0.0000000000000000e+00  2.5342246950172013e-02 -2.1618442059032861e-01 0.0000000000000000e+00  -1.1503970232975363e-02 -2.2132531029355421e-01 0.0000000000000000e+00  2.8062334685143721e-02 -2.2552281600694221e-01 0.0000000000000000e+00  -2.5402225206964502e-02 -2.2564812776005327e-01 0.0000000000000000e+00  3.7357662605029443e-02 -2.3806211982448036e-01 0.0000000000000000e+00  -1.9822755291617710e-02 -2.4556139550810899e-01 0.0000000000000000e+00  -3.3173237256652395e-02 -2.4666877626441477e-01 0.0000000000000000e+00  -4.6092903877321635e-03 -2.6899133198406694e-01 0.0000000000000000e+00  -3.0287494230192311e-02 -2.6989447050146415e-01 0.0000000000000000e+00  -8.4413056074448788e-03 -2.9449286661612611e-01 0.0000000000000000e+00  -4.7687350079070483e-02 -3.0933381959370171e-01 0.0000000000000000e+00  1.0473094731869501e-02 -3.1564801456953739e-01 0.0000000000000000e+00  -6.2005436876794745e-02 -3.2147184148649044e-01 0.0000000000000000e+00  1.4574048096097183e-02 -3.4163309377698708e-01 0.0000000000000000e+00  -5.6525466294407883e-02 -3.3072909494844843e-01 0.0000000000000000e+00  1.2284829950664820e-02 -4.0209255920472525e-01 0.0000000000000000e+00  -4.2589191526510882e-02 -4.0061787792146714e-01 0.0000000000000000e+00  2.6756326419794543e-02 -3.5434659733448637e-01 0.0000000000000000e+00  -4.4030825808935886e-02 -3.3469414426848221e-01 0.0000000000000000e+00  3.5813695219698086e-02 -3.4302087451640495e-01 0.0000000000000000e+00  -4.4617860580852750e-02 -3.8332967613993024e-01 0.0000000000000000e+00  5.5935878707489346e-02 -3.8930089426154113e-01 0.0000000000000000e+00  -1.7766479029914302e-02 -3.5105104004166121e-01 0.0000000000000000e+00  6.7275342877137503e-02 -3.3373975000087980e-01 0.0000000000000000e+00  3.2610537223308950e-02 -3.2405279852797358e-01 0.0000000000000000e+00  1.4204025697296776e-03 -2.8338163202564332e-01 0.0000000000000000e+00  7.8127745693000863e-02 -2.1590780951328420e-01 0.0000000000000000e+00  3.7957614726680508e-02 -2.7960749667873808e-01 0.0000000000000000e+00  1.3635953182861041e-01 -2.4485005730270296e-01 0.0000000000000000e+00  1.3260812082497975e-01 -1.7870844112621506e-01 0.0000000000000000e+00  -6.9619342974280183e-03 -1.3060088755137697e-01 0.0000000000000000e+00  1.2488570730104318e-02 -1.5473244957015586e-01 0.0000000000000000e+00  7.6986437591299015e-02 -2.1439658718403279e-01 0.0000000000000000e+00  1.2010493317298403e-02 -2.3995099310095325e-01 0.0000000000000000e+00  6.9665874656065122e-02 -2.9127541446790972e-01 0.0000000000000000e+00  3.1839429673515746e-02 -2.8691184030211092e-01 0.0000000000000000e+00  -2.0821519946545155e-02 -3.2005766362164900e-01 0.0000000000000000e+00  6.8252760597908496e-02 -3.1609020903106844e-01 0.0000000000000000e+00  -2.9446746199532203e-02 -3.2940134899814527e-01 0.0000000000000000e+00  5.7706293105116754e-02 -3.3747634449802810e-01 0.0000000000000000e+00  -3.8292827448457668e-02 -3.3794972421129021e-01 0.0000000000000000e+00  4.7663833007047435e-02 -3.3355683908740802e-01 0.0000000000000000e+00  -4.0196483815629437e-02 -3.3239079439619940e-01 0.0000000000000000e+00  4.5581080864446739e-02 -3.3000642475838665e-01 0.0000000000000000e+00  -5.0520224327750038e-02 -3.2649812646081278e-01 0.0000000000000000e+00  3.2231290456965246e-02 -3.1889443132982409e-01 0.0000000000000000e+00  -5.1182783845299729e-02 -3.1052531665290628e-01 0.0000000000000000e+00  2.6684714358167997e-02 -2.9928582848523649e-01 0.0000000000000000e+00  -5.1644079307347761e-02 -2.8798243696739467e-01 0.0000000000000000e+00  2.2806826507455372e-02 -2.7239201569154953e-01 0.0000000000000000e+00  -4.8505628599428023e-02 -2.6381309819068960e-01 0.0000000000000000e+00  2.1581249118271070e-02 -2.5715837460281571e-01 0.0000000000000000e+00  -4.3579146158527184e-02 -2.4723717466776798e-01 0.0000000000000000e+00  2.1870233714986191e-02 -2.4981612684778484e-01 0.0000000000000000e+00  -1.7151558371089157e-02 -2.3835380894571381e-01 0.0000000000000000e+00  -3.7189421962518288e-02 -2.3998709488605163e-01 0.0000000000000000e+00  4.8801532473305769e-03 -2.2016154748052150e-01 0.0000000000000000e+00  -3.1242526371810860e-02 -2.2967966063547648e-01 0.0000000000000000e+00  9.6798748638936317e-03 -2.3326969222417168e-01 0.0000000000000000e+00  -2.8964039254617928e-02 -2.3558609191262680e-01 0.0000000000000000e+00  9.0339641204134243e-03 -2.3619581389630398e-01 0.0000000000000000e+00  -2.6085529268082611e-02 -2.3086777364070279e-01 0.0000000000000000e+00  1.3469813541569866e-02 -2.4392935948369671e-01 0.0000000000000000e+00  -3.3005181899475257e-03 -2.4654032588717234e-01 0.0000000000000000e+00  -5.7071219381607939e-02 -2.5767783232633973e-01 0.0000000000000000e+00  6.5373428900861947e-03 -2.3409262297609004e-01 0.0000000000000000e+00  -6.1652146586147386e-02 -2.2962047017927212e-01 0.0000000000000000e+00  -1.5162147179500587e-03 -2.1012995313665628e-01 0.0000000000000000e+00  -6.0679682815593744e-02 -1.8912698741604694e-01 0.0000000000000000e+00  -5.9579586749261273e-03 -1.6467948058786777e-01 0.0000000000000000e+00  -4.6998293570455936e-02 -1.2600616932906858e-01 0.0000000000000000e+00  -3.6042820983808191e-02 -7.6360742020005437e-02 0.0000000000000000e+00  -4.2287015802547082e-02 1.0689042731067869e-02 0.0000000000000000e+00  -2.4191230162000952e-02 6.7693011526629751e-02 0.0000000000000000e+00  -8.5612505152084156e-02 2.0952450062140268e-01 0.0000000000000000e+00  -1.1732137854113668e-01 3.7157141745082489e-01 0.0000000000000000e+00  -1.4287154709779404e-01 3.9201534219343181e-01 0.0000000000000000e+00  -8.1208350548644670e-03 -2.0208569599026532e-01 0.0000000000000000e+00  -1.0968450090535086e-02 1.4572029261634983e-01 0.0000000000000000e+00  1.7827248976532727e-03 2.0082431869448816e-01 0.0000000000000000e+00  1.0320832858891429e-02 2.6513857857610085e-01 0.0000000000000000e+00  -1.6175503863790828e-02 -1.1959746829328562e-01 0.0000000000000000e+00  4.0157940436947072e-03 2.8176371128780325e-01 0.0000000000000000e+00  5.5832827932608495e-03 7.6166748907982073e-03 0.0000000000000000e+00  3.4194553316691380e-03 2.7330091674391521e-01 0.0000000000000000e+00  4.7714012676472062e-03 1.4128479158248761e-01 0.0000000000000000e+00  3.6330441503406495e-04 1.7323928416374218e-01 0.0000000000000000e+00  -1.0849029349327544e-02 2.7931467495448420e-01 0.0000000000000000e+00  5.1832374689533278e-03 1.8868898180446114e-01 0.0000000000000000e+00  -4.3120746094371587e-03 2.5023270807913900e-01 0.0000000000000000e+00  -3.7518322013532241e-03 1.8325792862838572e-01 0.0000000000000000e+00  6.9740997088968220e-04 1.8298946828274998e-01 0.0000000000000000e+00  -4.5350961182105331e-03 2.3508495584624689e-01 0.0000000000000000e+00  5.4828187104675220e-03 2.7137989000402052e-01 0.0000000000000000e+00  -3.7996910783755040e-03 1.8207516613372993e-01 0.0000000000000000e+00  -1.5211652747176307e-03 2.1622754224083893e-01 0.0000000000000000e+00  -1.1814414604890792e-03 1.8112255956918646e-01 0.0000000000000000e+00  -7.3565079747927500e-03 1.9929514265892229e-01 0.0000000000000000e+00  3.6348017381169669e-03 1.5735002236288870e-01 0.0000000000000000e+00  -1.4356898924062229e-03 1.6000225944091592e-01 0.0000000000000000e+00  -5.6768594735738236e-03 2.0888560030429512e-01 0.0000000000000000e+00  4.5407023958420759e-03 8.2551996954878609e-02 0.0000000000000000e+00  9.0359297324180410e-03 1.4704218230944227e-01 0.0000000000000000e+00  -4.8315384427165584e-02 -1.7132569282528420e-01 0.0000000000000000e+00  -3.3208596075291379e-03 1.9125964700581122e-01 0.0000000000000000e+00  -9.0319279708203758e-03 1.9942876989513117e-01 0.0000000000000000e+00  3.1766610074291844e-02 -2.3643683055601224e-02 0.0000000000000000e+00  4.6769990670441318e-03 1.1451063758217736e-01 0.0000000000000000e+00  -3.4420852406092709e-03 1.7828458479220274e-01 0.0000000000000000e+00  4.3600780143710611e-04 1.8671847814194029e-01 0.0000000000000000e+00  -9.9640713476707148e-03 1.3147114403273233e-01 0.0000000000000000e+00  1.2982392334621321e-03 1.6471540549357527e-01 0.0000000000000000e+00  5.9881513019584120e-03 1.2479442277103063e-01 0.0000000000000000e+00  -2.5127439376848621e-03 1.3047008455737463e-01 0.0000000000000000e+00  -1.1065501130858608e-03 1.6028627812132537e-01 0.0000000000000000e+00  -1.7555340497397345e-03 2.0400311632765114e-01 0.0000000000000000e+00  4.8366273503966618e-03 1.4277503709115391e-01 0.0000000000000000e+00  2.4382726704388403e-03 1.3962369522258070e-01 0.0000000000000000e+00  -3.8721423514510467e-02 -2.0920983833277210e-01 0.0000000000000000e+00  5.5424081516515129e-02 -1.9493609307496151e-01 0.0000000000000000e+00  -8.2679144586458295e-02 1.0828064876757477e-01 0.0000000000000000e+00  2.5235475123225989e-02 -1.7255981909517917e-01 0.00000