<?xml version="1.0"?>
<VTKFile type="UnstructuredGrid"  version="0.1"  >
<UnstructuredGrid>
<Piece  NumberOfPoints="1419" NumberOfCells="2698">
<Points>
<DataArray  type="Float64"  NumberOfComponents="3"  format="ascii">1.856141115804312e-08 -1.477558956353014e-06 0  3.599524706169799e-08 0.4099985159241242 0  2.500000064754031 -2.178277223135891e-06 0  2.500000064754047 0.4099978217227949 0  0.6000000711982044 0.1899977515529759 0  0.6000000852896573 0.2099977527400851 0  0.25 0.2 0  0.1500000267056201 0.1999985328429487 0  0.2489897948556636 0.21 0  0.2489897948556636 0.19 0  0.6000000815055162 0.1999977435601594 0  3.579409420290431e-08 0.3807128020788721 0  3.522167948738727e-08 0.3514270889912547 0  3.426201388532463e-08 0.3221413764835384 0  3.291916935093733e-08 0.2928556641721021 0  3.12629747388151e-08 0.2635699517617027 0  2.93582555771977e-08 0.2342842390546428 0  2.72839950912316e-08 0.2049985257543655 0  2.520792198647782e-08 0.1757128119107134 0  2.32800622028009e-08 0.1464270974678941 0  2.159476189690296e-08 0.1171413825374154 0  2.028201809563453e-08 0.08785566729961178 0  1.931560790692448e-08 0.05856995201884628 0  1.874340231148726e-08 0.02928423698684782 0  0.03015445597247434 -1.477851815828845e-06 0  0.06140003760815314 -1.478913108349174e-06 0  0.09377625742378314 -1.481320965418226e-06 0  0.1273240108740201 -1.486085469207347e-06 0  0.1620856992880214 -1.495021981583244e-06 0  0.1981052546234677 -1.512587326547576e-06 0  0.2354281938633284 -1.545458166122137e-06 0  0.2741016669032451 -1.597965884653682e-06 0  0.3141745623639018 -1.670755693948317e-06 0  0.3556975059094457 -1.761014519963901e-06 0  0.3987229724985745 -1.85795964493698e-06 0  0.4433053304866421 -1.950283862057617e-06 0  0.4895009087836009 -2.030526092087118e-06 0  0.5373681019070811 -2.092149661512306e-06 0  0.5869673825862568 -2.133249599965889e-06 0  0.6383614217761778 -2.1581806985341e-06 0  0.6916151719804398 -2.170414285467642e-06 0  0.746795920251042 -2.175757807080002e-06 0  0.8039734086856889 -2.177910784713774e-06 0  0.8632198772207911 -2.178608718877057e-06 0  0.9246101965547189 -2.178715151447585e-06 0  0.9882219453092562 -2.178629050051141e-06 0  1.054135509996771 -2.178524267169593e-06 0  1.122434165108043 -2.178436826600747e-06 0  1.193204241787558 -2.178373374183372e-06 0  1.266535154573261 -2.178332854257087e-06 0  1.342519580766527 -2.178308987691775e-06 0  1.421253513239336 -2.178294844573354e-06 0  1.502836453850503 -2.178286542426657e-06 0  1.587371504507789 -2.178282069599012e-06 0  1.67496548352881 -2.178279701586317e-06 0  1.7657290665783 -2.178278441069248e-06 0  1.859776973633486 -2.178277821323276e-06 0  1.957228042240806 -2.17827749633647e-06 0  2.058205394623842 -2.178277348381651e-06 0  2.162836655943929 -2.178277272871786e-06 0  2.271254022044875 -2.178277240874646e-06 0  2.38359451155745 -2.178277227180919e-06 0  2.500000064754031 0.1024978217225406 0  2.500000064754039 0.2049978217222601 0  2.500000064754046 0.3074978217225106 0  2.383594511557708 0.4099978217227989 0  2.271254022045381 0.409997821722813 0  2.162836655944701 0.4099978217228464 0  2.058205394624953 0.4099978217229185 0  1.957228042242397 0.4099978217230649 0  1.859776973635932 0.4099978217234058 0  1.765729066582185 0.4099978217240235 0  1.674965483535516 0.4099978217253365 0  1.587371504519578 0.4099978217277118 0  1.502836453871808 0.409997821732237 0  1.421253513278556 0.409997821740986 0  1.34251958083615 0.409997821755854 0  1.266535154695084 0.4099978217818648 0  1.193204242002897 0.4099978218308845 0  1.122434165481224 0.4099978219188801 0  1.05413551061448 0.4099978220661937 0  0.9882219463413153 0.4099978223584969 0  0.9246101982208143 0.4099978228962132 0  0.8632198798888393 0.4099978239278881 0  0.8039734128628981 0.4099978259956745 0  0.7467959266566926 0.4099978301522428 0  0.6916151814733383 0.4099978382698947 0  0.6383614353754777 0.409997854124236 0  0.5869674013344149 0.4099978814912487 0  0.537368126376943 0.4099979240251177 0  0.4895009391811123 0.4099979849906832 0  0.4433053664667611 0.4099980614604603 0  0.3987230128984783 0.4099981482514216 0  0.3556975488394943 0.4099982382059573 0  0.3141746056204286 0.4099983221624656 0  0.2741017081008821 0.4099983917669678 0  0.2354282314649382 0.4099984417128879 0  0.1981052877363616 0.4099984745070251 0  0.1620857278198369 0.4099984937336975 0  0.1273240353671362 0.4099985044519545 0  0.09377627872917646 0.4099985106268645 0  0.06140005670422026 0.4099985138380731 0  0.03015447378174031 0.4099985155071045 0  0.2497468076502589 0.2050254481002335 0  0.2497468076502614 0.1949745518997913 0  0.2469965148369725 0.1829309889618645 0  0.2439893642912535 0.1762306641885044 0  0.2400332080678258 0.1700432131842367 0  0.2352133933448188 0.1645020675298648 0  0.2296339004111274 0.1597267394565252 0  0.2234150987351605 0.1558202401212847 0  0.2166911500108078 0.1528668396835538 0  0.2096071137436308 0.1509302492730218 0  0.2023158179500798 0.1500522434653462 0  0.1949745617459269 0.1502517633045319 0  0.1877417222628407 0.1515245019627169 0  0.180773337545515 0.1538430012726508 0  0.1742197405375149 0.157157241705133 0  0.1682223156005769 0.1613957229475061 0  0.1629104486207695 0.1664670051877588 0  0.1583987354251123 0.1722616826645859 0  0.1547845098010601 0.1786547432408366 0  0.1521457434233495 0.1855082657817266 0  0.1505393639646127 0.1926743952788275 0  0.1505393671466652 0.2073226707517639 0  0.1521457498184044 0.2144888013291241 0  0.1547845193419365 0.2213423257421137 0  0.1583987481631244 0.2277353892166798 0  0.1629104645075949 0.2335300708057125 0  0.1682223347000647 0.2386013589779717 0  0.1742197627855864 0.2428398481982523 0  0.1807733630001699 0.2461540996973074 0  0.1877417509176515 0.248472614214874 0  0.1949745936236592 0.2497453738248452 0  0.2023158530160507 0.2499449213499807 0  0.2096071520708828 0.2490669541709951 0  0.2166911914944976 0.2471304145810263 0  0.2234151433590728 0.2441770851062159 0  0.2296339480198959 0.2402706819742541 0  0.235213443542121 0.2354954898520739 0  0.2400332600284301 0.2299545342730125 0  0.2439894156987632 0.2237673829316978 0  0.246996559220106 0.2170675709263152 0  0.2564581398411326 0.2099992989121752 0  0.2639264529582662 0.209999062052105 0  0.2713947644170222 0.2099989078806864 0  0.2788630661997076 0.2099987884928939 0  0.2863313696763477 0.2099986890766737 0  0.2937996721941158 0.2099986017046869 0  0.3012679744421409 0.2099985223946798 0  0.3087362756878354 0.2099984618783241 0  0.3162045819316788 0.2099984044456156 0  0.3236728823146128 0.2099983512939264 0  0.3311411893231112 0.2099983029237217 0  0.3386094889469876 0.2099982583886531 0  0.3460777949517565 0.2099982153831202 0  0.3535460952598419 0.2099981685928565 0  0.3610143953203703 0.209998145325788 0  0.3684826998270772 0.2099981179097744 0  0.3759509978055682 0.2099980889403429 0  0.3834193018226442 0.2099980619074564 0  0.3908875993999256 0.2099980355606267 0  0.3983559033650633 0.2099980106955493 0  0.4058242003900533 0.2099979857219323 0  0.4132925037593711 0.2099979592224147 0  0.4207608008183782 0.2099979266913834 0  0.4282290999697618 0.2099979145187698 0  0.4356974036135546 0.2099978970237948 0  0.443165702454241 0.2099978779518482 0  0.4506340069780768 0.2099978584804131 0  0.4581023060623793 0.2099978401049327 0  0.4655706117247358 0.2099978225021708 0  0.4730389109573213 0.2099978057861702 0  0.4805072176969009 0.2099977896069491 0  0.4879755179625743 0.209997774658792 0  0.4954438264798362 0.2099977590481426 0  0.502912127271814 0.2099977470901012 0  0.5103804362135672 0.2099977380344527 0  0.5178487375778404 0.2099977297718833 0  0.5253170481552917 0.2099977211569947 0  0.5327853499002911 0.2099977128009292 0  0.5402536607391415 0.2099977068802107 0  0.5477219632971158 0.2099977038274972 0  0.5551902745211217 0.20999769875007 0  0.5626585783768542 0.2099976875532603 0  0.5701268791798512 0.2099977069522975 0  0.5775951873535877 0.2099977196344218 0  0.5850634872129 0.2099977263807746 0  0.5925317901359531 0.2099977385706248 0  0.6000000866256344 0.2049977461668862 0  0.6000000740497439 0.1949977478145073 0  0.5925317682571265 0.1899977373745461 0  0.5850634692781232 0.1899977217618029 0  0.5775951621598592 0.1899977085213707 0  0.570126861699271 0.1899976956960265 0  0.5626585553369443 0.1899976775438088 0  0.5551902470326388 0.1899976854921546 0  0.5477219464162217 0.1899976867746249 0  0.5402536359940258 0.1899976884329573 0  0.5327853355893144 0.1899976924049333 0  0.5253170240671295 0.1899976983931502 0  0.5178487221216429 0.1899977060089519 0  0.5103804112031666 0.1899977148300245 0  0.5029121106407146 0.1899977249839483 0  0.4954437999092972 0.1899977373323327 0  0.4879754993541978 0.1899977517230766 0  0.4805071891321613 0.1899977676919586 0  0.4730388875960942 0.189997784578642 0  0.465570578044149 0.1899978026009023 0  0.4581022777962472 0.189997821484219 0  0.4506339696494586 0.1899978414355058 0  0.443165669385178 0.1899978622226513 0  0.4356973612081255 0.1899978835766762 0  0.4282290597265621 0.1899979040568688 0  0.4207607528454687 0.1899979192585506 0  0.413292447311282 0.1899979528671131 0  0.4058241468904197 0.1899979823669349 0  0.398355840890084 0.1899980091811971 0  0.390887539710344 0.1899980365008582 0  0.3834192333895495 0.1899980641522006 0  0.3759509317739457 0.1899980924847822 0  0.3684826256484656 0.1899981217906189 0  0.3610143248421219 0.1899981495006588 0  0.3535460186390521 0.1899981744309373 0  0.3460777112560995 0.189998221152427 0  0.3386094094987318 0.1899982656520605 0  0.3311411022287556 0.1899983106719838 0  0.3236728015522658 0.1899983590086881 0  0.3162044957672306 0.1899984118537772 0  0.3087361954889934 0.1899984681532098 0  0.3012678904171088 0.1899985279566483 0  0.2937995874620163 0.1899986063836991 0  0.2863312847578029 0.1899986931097812 0  0.2788629825575618 0.1899987918605675 0  0.2713946752939889 0.1899989121957764 0  0.2639263748026816 0.1899990694168746 0  0.2564580745361201 0.18999930
[...]
<PointData  Vectors="f_30-0"> 
<DataArray  type="Float64"  Name="f_30-0"  NumberOfComponents="3" format="ascii">0.0000000000000000e+00 0.0000000000000000e+00 0.0000000000000000e+00  0.0000000000000000e+00 0.0000000000000000e+00 0.0000000000000000e+00  0.0000000000000000e+00 0.0000000000000000e+00 0.0000000000000000e+00  0.0000000000000000e+00 0.0000000000000000e+00 0.0000000000000000e+00  1.6042207148296635e-02 -7.0995015402927561e-02 0.0000000000000000e+00  4.2475878749524909e-02 -6.4199829080424028e-02 0.0000000000000000e+00  0.0000000000000000e+00 0.0000000000000000e+00 0.0000000000000000e+00  0.0000000000000000e+00 0.0000000000000000e+00 0.0000000000000000e+00  0.0000000000000000e+00 0.0000000000000000e+00 0.0000000000000000e+00  0.0000000000000000e+00 0.0000000000000000e+00 0.0000000000000000e+00  7.8010129611440104e-02 -1.5987552580023634e-01 0.0000000000000000e+00  0.0000000000000000e+00 0.0000000000000000e+00 0.0000000000000000e+00  0.0000000000000000e+00 0.0000000000000000e+00 0.0000000000000000e+00  0.0000000000000000e+00 0.0000000000000000e+00 0.0000000000000000e+00  0.0000000000000000e+00 0.0000000000000000e+00 0.0000000000000000e+00  0.0000000000000000e+00 0.0000000000000000e+00 0.0000000000000000e+00  0.0000000000000000e+00 0.0000000000000000e+00 0.0000000000000000e+00  0.0000000000000000e+00 0.0000000000000000e+00 0.0000000000000000e+00  0.0000000000000000e+00 0.0000000000000000e+00 0.0000000000000000e+00  0.0000000000000000e+00 0.0000000000000000e+00 0.0000000000000000e+00  0.0000000000000000e+00 0.0000000000000000e+00 0.0000000000000000e+00  0.0000000000000000e+00 0.0000000000000000e+00 0.0000000000000000e+00  0.0000000000000000e+00 0.0000000000000000e+00 0.0000000000000000e+00  0.0000000000000000e+00 0.0000000000000000e+00 0.0000000000000000e+00  0.0000000000000000e+00 0.0000000000000000e+00 0.0000000000000000e+00  0.0000000000000000e+00 0.0000000000000000e+00 0.0000000000000000e+00  0.0000000000000000e+00 0.0000000000000000e+00 0.0000000000000000e+00  0.0000000000000000e+00 0.0000000000000000e+00 0.0000000000000000e+00  0.0000000000000000e+00 0.0000000000000000e+00 0.0000000000000000e+00  0.0000000000000000e+00 0.0000000000000000e+00 0.0000000000000000e+00  0.0000000000000000e+00 0.0000000000000000e+00 0.0000000000000000e+00  0.0000000000000000e+00 0.0000000000000000e+00 0.0000000000000000e+00  0.0000000000000000e+00 0.0000000000000000e+00 0.0000000000000000e+00  0.0000000000000000e+00 0.0000000000000000e+00 0.0000000000000000e+00  0.0000000000000000e+00 0.0000000000000000e+00 0.0000000000000000e+00  0.0000000000000000e+00 0.0000000000000000e+00 0.0000000000000000e+00  0.0000000000000000e+00 0.0000000000000000e+00 0.0000000000000000e+00  0.0000000000000000e+00 0.0000000000000000e+00 0.0000000000000000e+00  0.0000000000000000e+00 0.0000000000000000e+00 0.0000000000000000e+00  0.0000000000000000e+00 0.0000000000000000e+00 0.0000000000000000e+00  0.0000000000000000e+00 0.0000000000000000e+00 0.0000000000000000e+00  0.0000000000000000e+00 0.0000000000000000e+00 0.0000000000000000e+00  0.0000000000000000e+00 0.0000000000000000e+00 0.0000000000000000e+00  0.0000000000000000e+00 0.0000000000000000e+00 0.0000000000000000e+00  0.0000000000000000e+00 0.0000000000000000e+00 0.0000000000000000e+00  0.0000000000000000e+00 0.0000000000000000e+00 0.0000000000000000e+00  0.0000000000000000e+00 0.0000000000000000e+00 0.0000000000000000e+00  0.0000000000000000e+00 0.0000000000000000e+00 0.0000000000000000e+00  0.0000000000000000e+00 0.0000000000000000e+00 0.0000000000000000e+00  0.0000000000000000e+00 0.0000000000000000e+00 0.0000000000000000e+00  0.0000000000000000e+00 0.0000000000000000e+00 0.0000000000000000e+00  0.0000000000000000e+00 0.0000000000000000e+00 0.0000000000000000e+00  0.0000000000000000e+00 0.0000000000000000e+00 0.0000000000000000e+00  0.0000000000000000e+00 0.0000000000000000e+00 0.0000000000000000e+00  0.0000000000000000e+00 0.0000000000000000e+00 0.0000000000000000e+00  0.0000000000000000e+00 0.0000000000000000e+00 0.0000000000000000e+00  0.0000000000000000e+00 0.0000000000000000e+00 0.0000000000000000e+00  0.0000000000000000e+00 0.0000000000000000e+00 0.0000000000000000e+00  0.0000000000000000e+00 0.0000000000000000e+00 0.0000000000000000e+00  0.0000000000000000e+00 0.0000000000000000e+00 0.0000000000000000e+00  0.0000000000000000e+00 0.0000000000000000e+00 0.0000000000000000e+00  0.0000000000000000e+00 0.0000000000000000e+00 0.0000000000000000e+00  6.9066781535721334e-09 2.2438673109294282e-09 0.0000000000000000e+00  -2.1407038653917121e-10 3.0325501616704984e-09 0.0000000000000000e+00  -7.1499157622894298e-09 2.6855863678314366e-09 0.0000000000000000e+00  0.0000000000000000e+00 0.0000000000000000e+00 0.0000000000000000e+00  0.0000000000000000e+00 0.0000000000000000e+00 0.0000000000000000e+00  0.0000000000000000e+00 0.0000000000000000e+00 0.0000000000000000e+00  0.0000000000000000e+00 0.0000000000000000e+00 0.0000000000000000e+00  0.0000000000000000e+00 0.0000000000000000e+00 0.0000000000000000e+00  0.0000000000000000e+00 0.0000000000000000e+00 0.0000000000000000e+00  0.0000000000000000e+00 0.0000000000000000e+00 0.0000000000000000e+00  0.0000000000000000e+00 0.0000000000000000e+00 0.0000000000000000e+00  0.0000000000000000e+00 0.0000000000000000e+00 0.0000000000000000e+00  0.0000000000000000e+00 0.0000000000000000e+00 0.0000000000000000e+00  0.0000000000000000e+00 0.0000000000000000e+00 0.0000000000000000e+00  0.0000000000000000e+00 0.0000000000000000e+00 0.0000000000000000e+00  0.0000000000000000e+00 0.0000000000000000e+00 0.0000000000000000e+00  0.0000000000000000e+00 0.0000000000000000e+00 0.0000000000000000e+00  0.0000000000000000e+00 0.0000000000000000e+00 0.0000000000000000e+00  0.0000000000000000e+00 0.0000000000000000e+00 0.0000000000000000e+00  0.0000000000000000e+00 0.0000000000000000e+00 0.0000000000000000e+00  0.0000000000000000e+00 0.0000000000000000e+00 0.0000000000000000e+00  0.0000000000000000e+00 0.0000000000000000e+00 0.0000000000000000e+00  0.0000000000000000e+00 0.0000000000000000e+00 0.0000000000000000e+00  0.0000000000000000e+00 0.0000000000000000e+00 0.0000000000000000e+00  0.0000000000000000e+00 0.0000000000000000e+00 0.0000000000000000e+00  0.0000000000000000e+00 0.0000000000000000e+00 0.0000000000000000e+00  0.0000000000000000e+00 0.0000000000000000e+00 0.0000000000000000e+00  0.0000000000000000e+00 0.0000000000000000e+00 0.0000000000000000e+00  0.0000000000000000e+00 0.0000000000000000e+00 0.0000000000000000e+00  0.0000000000000000e+00 0.0000000000000000e+00 0.0000000000000000e+00  0.0000000000000000e+00 0.0000000000000000e+00 0.0000000000000000e+00  0.0000000000000000e+00 0.0000000000000000e+00 0.0000000000000000e+00  0.0000000000000000e+00 0.0000000000000000e+00 0.0000000000000000e+00  0.0000000000000000e+00 0.0000000000000000e+00 0.0000000000000000e+00  0.0000000000000000e+00 0.0000000000000000e+00 0.0000000000000000e+00  0.0000000000000000e+00 0.0000000000000000e+00 0.0000000000000000e+00  0.0000000000000000e+00 0.0000000000000000e+00 0.0000000000000000e+00  0.0000000000000000e+00 0.0000000000000000e+00 0.0000000000000000e+00  0.0000000000000000e+00 0.0000000000000000e+00 0.0000000000000000e+00  0.0000000000000000e+00 0.0000000000000000e+00 0.0000000000000000e+00  0.0000000000000000e+00 0.0000000000000000e+00 0.0000000000000000e+00  0.0000000000000000e+00 0.0000000000000000e+00 0.0000000000000000e+00  0.0000000000000000e+00 0.0000000000000000e+00 0.0000000000000000e+00  0.0000000000000000e+00 0.0000000000000000e+00 0.0000000000000000e+00  0.0000000000000000e+00 0.0000000000000000e+00 0.0000000000000000e+00  0.0000000000000000e+00 0.0000000000000000e+00 0.0000000000000000e+00  0.0000000000000000e+00 0.0000000000000000e+00 0.0000000000000000e+00  0.0000000000000000e+00 0.0000000000000000e+00 0.0000000000000000e+00  0.0000000000000000e+00 0.0000000000000000e+00 0.0000000000000000e+00  0.0000000000000000e+00 0.0000000000000000e+00 0.0000000000000000e+00  0.0000000000000000e+00 0.0000000000000000e+00 0.0000000000000000e+00  0.0000000000000000e+00 0.0000000000000000e+00 0.0000000000000000e+00  0.0000000000000000e+00 0.0000000000000000e+00 0.0000000000000000e+00  0.0000000000000000e+00 0.0000000000000000e+00 0.0000000000000000e+00  0.0000000000000000e+00 0.0000000000000000e+00 0.0000000000000000e+00  0.0000000000000000e+00 0.0000000000000000e+00 0.0000000000000000e+00  0.0000000000000000e+00 0.0000000000000000e+00 0.0000000000000000e+00  0.0000000000000000e+00 0.0000000000000000e+00 0.0000000000000000e+00  0.0000000000000000e+00 0.0000000000000000e+00 0.0000000000000000e+00  0.0000000000000000e+00 0.0000000000000000e+00 0.0000000000000000e+00  0.0000000000000000e+00 0.0000000000000000e+00 0.0000000000000000e+00  0.0000000000000000e+00 0.0000000000000000e+00 0.0000000000000000e+00  0.0000000000000000e+00 0.0000000000000000e+00 0.0000000000000000e+00  0.0000000000000000e+00 0.0000000000000000e+00 0.0000000000000000e+00  0.0000000000000000e+00 0.0000000000000000e+00 0.0000000000000000e+00  0.0000000000000000e+00 0.0000000000000000e+00 0.0000000000000000e+00  0.0000000000000000e+00 0.0000000000000000e+00 0.0000000000000000e+00  0.0000000000000000e+00 0.0000000000000000e+00 0.0000000000000000e+00  0.0000000000000000e+00 0.0000000000000000e+00 0.0000000000000000e+00  0.0000000000000000e+00 0.0000000000000000e+00 0.0000000000000000e+00  0.0000000000000000e+00 0.0000000000000000e+00 0.0000000000000000e+00  0.0000000000000000e+00 0.0000000000000000e+00 0.0000000000000000e+00  0.0000000000000000e+00 0.0000000000000000e+00 0.0000000000000000e+00  0.0000000000000000e+00 0.0000000000000000e+00 0.0000000000000000e+00  0.0000000000000000e+00 0.0000000000000000e+00 0.0000000000000000e+00  0.0000000000000000e+00 0.0000000000000000e+00 0.0000000000000000e+00  0.0000000000000000e+00 0.0000000000000000e+00 0.0000000000000000e+00  0.0000000000000000e+00 0.0000000000000000e+00 0.0000000000000000e+00  0.0000000000000000e+00 0.0000000000000000e+00 0.0000000000000000e+00  0.0000000000000000e+00 0.0000000000000000e+00 0.0000000000000000e+00  0.0000000000000000e+00 0.0000000000000000e+00 0.0000000000000000e+00  1.0599269587238677e-01 3.7018254053670047e-01 0.0000000000000000e+00  8.4740521698595375e-02 3.0895682097842114e-01 0.0000000000000000e+00  1.0232985834206862e-01 2.0685503606942265e-01 0.0000000000000000e+00  4.6145027941513449e-02 8.2142563685830325e-02 0.0000000000000000e+00  4.4022909284587984e-02 1.8027840109906195e-02 0.0000000000000000e+00  2.6595175985994712e-02 -7.4943040066612121e-02 0.0000000000000000e+00  3.7019195404809649e-02 -1.2587650366921360e-01 0.0000000000000000e+00  -9.4603237332611927e-03 -1.6661111965491912e-01 0.0000000000000000e+00  3.8811365897490277e-02 -1.8359452187810818e-01 0.0000000000000000e+00  -1.1213431056204960e-02 -2.0205261550100634e-01 0.0000000000000000e+00  4.1602921646299494e-02 -2.2582599020611219e-01 0.0000000000000000e+00  -9.2169274077972957e-03 -2.2812277333980713e-01 0.0000000000000000e+00  5.3403908308978995e-02 -2.5440315397151114e-01 0.0000000000000000e+00  9.3140325806468013e-03 -2.5758048623925750e-01 0.0000000000000000e+00  3.1226461293640548e-03 -2.3949634390675476e-01 0.0000000000000000e+00  2.6450237421633011e-02 -2.0999538665499010e-01 0.0000000000000000e+00  -2.4918441975606141e-03 -2.2674887572782743e-01 0.0000000000000000e+00  2.4732745529333060e-02 -2.1106956825216464e-01 0.0000000000000000e+00  -1.1188890545387232e-02 -2.1595886800445416e-01 0.0000000000000000e+00  2.7536270295491924e-02 -2.1963649938505381e-01 0.0000000000000000e+00  -2.4436028836706203e-02 -2.1983589769566936e-01 0.0000000000000000e+00  3.6732327878390703e-02 -2.3150040493276819e-01 0.0000000000000000e+00  -1.8794968744616267e-02 -2.3819215681011846e-01 0.0000000000000000e+00  -3.1546308866358008e-02 -2.3959111041768857e-01 0.0000000000000000e+00  -3.6303382456519982e-03 -2.6010477679650235e-01 0.0000000000000000e+00  -2.8518070033132070e-02 -2.6140626329423688e-01 0.0000000000000000e+00  -7.2815680759150134e-03 -2.8426689085466905e-01 0.0000000000000000e+00  -4.5353720541105792e-02 -2.9883761811948201e-01 0.0000000000000000e+00  1.0874296583118542e-02 -3.0478381555465567e-01 0.0000000000000000e+00  -5.9404994115174511e-02 -3.1052906365905664e-01 0.0000000000000000e+00  1.4826628356626273e-02 -3.2994613906088693e-01 0.0000000000000000e+00  -5.4305986578492803e-02 -3.2033089369044371e-01 0.0000000000000000e+00  1.1892522820514720e-02 -3.8756071239626122e-01 0.0000000000000000e+00  -4.1743358676282809e-02 -3.8644650636406114e-01 0.0000000000000000e+00  2.5146828099343724e-02 -3.4453279969555489e-01 0.0000000000000000e+00  -4.3779603295842393e-02 -3.2569067141847968e-01 0.0000000000000000e+00  3.4110194244091348e-02 -3.3448630984870392e-01 0.0000000000000000e+00  -4.4541950502991839e-02 -3.7295879321579362e-01 0.0000000000000000e+00  5.3308943521665070e-02 -3.7942306641307993e-01 0.0000000000000000e+00  -1.9061348420122415e-02 -3.4234707087035587e-01 0.0000000000000000e+00  6.3958985375991359e-02 -3.2759344662082734e-01 0.0000000000000000e+00  3.0256353981139850e-02 -3.1760706478259926e-01 0.0000000000000000e+00  -5.0271421254673978e-04 -2.7840896787591418e-01 0.0000000000000000e+00  7.4923514067914948e-02 -2.1319672257856537e-01 0.0000000000000000e+00  3.5021414377193930e-02 -2.7342985035138445e-01 0.0000000000000000e+00  1.3121462952333715e-01 -2.3794932826205409e-01 0.0000000000000000e+00  1.2777407035622074e-01 -1.7408194406058694e-01 0.0000000000000000e+00  -8.3409475558866245e-03 -1.2810448384587117e-01 0.0000000000000000e+00  1.0892613011903944e-02 -1.5230298029609957e-01 0.0000000000000000e+00  7.4212652867869836e-02 -2.1098547734639886e-01 0.0000000000000000e+00  1.0738909160251081e-02 -2.3578823810269731e-01 0.0000000000000000e+00  6.7406330424584424e-02 -2.8605930478144082e-01 0.0000000000000000e+00  3.0483645897623663e-02 -2.8161401830218019e-01 0.0000000000000000e+00  -2.1430427396948504e-02 -3.1381996075243057e-01 0.0000000000000000e+00  6.5745828939256179e-02 -3.0902335267713393e-01 0.0000000000000000e+00  -2.9480928067170380e-02 -3.2159321916893802e-01 0.0000000000000000e+00  5.5732674945617407e-02 -3.2919287334691055e-01 0.0000000000000000e+00  -3.7657956198840346e-02 -3.2952083048912195e-01 0.0000000000000000e+00  4.5852792965921325e-02 -3.2469313506183894e-01 0.0000000000000000e+00  -3.9576814752875812e-02 -3.2286816198262774e-01 0.0000000000000000e+00  4.3757448649491250e-02 -3.1949538512514025e-01 0.0000000000000000e+00  -4.8857175554339126e-02 -3.1577111459976898e-01 0.0000000000000000e+00  3.1387416731074577e-02 -3.0845336983886812e-01 0.0000000000000000e+00  -4.9199291095196468e-02 -3.0047008752407145e-01 0.0000000000000000e+00  2.6047778846938489e-02 -2.8948946777338319e-01 0.0000000000000000e+00  -4.9513820345497804e-02 -2.7847170723759085e-01 0.0000000000000000e+00  2.2458802415441011e-02 -2.6328631795968388e-01 0.0000000000000000e+00  -4.6469921215190994e-02 -2.5513036044293674e-01 0.0000000000000000e+00  2.1332688978220337e-02 -2.4895207908888212e-01 0.0000000000000000e+00  -4.1709524507051447e-02 -2.3957823212310114e-01 0.0000000000000000e+00  2.1688212823592144e-02 -2.4247841576142912e-01 0.0000000000000000e+00  -1.6310573737261903e-02 -2.3157572088064035e-01 0.0000000000000000e+00  -3.5743918603113510e-02 -2.3326025171502754e-01 0.0000000000000000e+00  5.0176052493927804e-03 -2.1430943781997655e-01 0.0000000000000000e+00  -3.0098087459800135e-02 -2.2387627255224185e-01 0.0000000000000000e+00  9.6185300952200108e-03 -2.2771054215224709e-01 0.0000000000000000e+00  -2.7952949943958603e-02 -2.3012799280041804e-01 0.0000000000000000e+00  9.0248939461849819e-03 -2.3091508342442793e-01 0.0000000000000000e+00  -2.5204407121981635e-02 -2.2571713574990643e-01 0.0000000000000000e+00  1.3319155006420023e-02 -2.3866621917723888e-01 0.0000000000000000e+00  -2.9401947247439239e-03 -2.4153663076146431e-01 0.0000000000000000e+00  -5.5612426575341302e-02 -2.5270073985487174e-01 0.0000000000000000e+00  6.9281861048445898e-03 -2.3006667815431159e-01 0.0000000000000000e+00  -6.0037238724369855e-02 -2.2610342716285170e-01 0.0000000000000000e+00  -7.4806274145290631e-04 -2.0755149511309023e-01 0.0000000000000000e+00  -5.9309156818856783e-02 -1.8735615821263263e-01 0.0000000000000000e+00  -5.1310202105849731e-03 -1.6419247567291056e-01 0.0000000000000000e+00  -4.5958732393612776e-02 -1.2675298930550732e-01 0.0000000000000000e+00  -3.6079772795124775e-02 -7.8833456971551905e-02 0.0000000000000000e+00  -4.1651737574411728e-02 6.5813412900779175e-03 0.0000000000000000e+00  -2.5173792413805143e-02 6.2516032085783144e-02 0.0000000000000000e+00  -8.3655431161137578e-02 2.0049495112413138e-01 0.0000000000000000e+00  -1.1386104901597006e-01 3.5712447843300982e-01 0.0000000000000000e+00  -1.3913295263269440e-01 3.8121345719977212e-01 0.0000000000000000e+00  -7.8401419428378756e-03 -1.9495662980650816e-01 0.0000000000000000e+00  -1.0673828032746436e-02 1.4279522935622194e-01 0.0000000000000000e+00  1.5402275997162442e-03 1.9735815960750244e-01 0.0000000000000000e+00  1.0163218677856583e-02 2.5938851370953742e-01 0.0000000000000000e+00  -1.5055863866060882e-02 -1.1344111788652278e-01 0.0000000000000000e+00  3.6127485912484207e-03 2.7473045052016681e-01 0.0000000000000000e+00  5.3643975039098174e-03 1.0726465726861379e-02 0.0000000000000000e+00  3.0488323056660493e-03 2.6616086367359110e-01 0.0000000000000000e+00  4.7397686751632960e-03 1.4037924639383095e-01 0.0000000000000000e+00  4.1709672042375726e-04 1.7083045979509415e-01 0.0000000000000000e+00  -1.0001400205486490e-02 2.7072192840000386e-01 0.0000000000000000e+00  5.1164850486054934e-03 1.8455144591686531e-01 0.0000000000000000e+00  -3.9689916004539911e-03 2.4192291311966216e-01 0.0000000000000000e+00  -3.7262915750321162e-03 1.7996108362132027e-01 0.0000000000000000e+00  6.8538013799724685e-04 1.7874651670235731e-01 0.0000000000000000e+00  -4.2341809869773303e-03 2.2719941487562195e-01 0.0000000000000000e+00  4.8567110601058965e-03 2.6239120531015414e-01 0.0000000000000000e+00  -3.6460197076279648e-03 1.7754329355946796e-01 0.0000000000000000e+00  -1.3818184270541305e-03 2.0915385330510822e-01 0.0000000000000000e+00  -1.1659326447084597e-03 1.7624864220916348e-01 0.0000000000000000e+00  -7.0833090285244834e-03 1.9317335582764017e-01 0.0000000000000000e+00  3.4664594658148280e-03 1.5277687390365097e-01 0.0000000000000000e+00  -1.4219802990183526e-03 1.5660278594517560e-01 0.0000000000000000e+00  -5.4600892779553900e-03 2.0496936094144405e-01 0.0000000000000000e+00  4.3937262125923375e-03 8.3072480981523422e-02 0.0000000000000000e+00  9.2865442801355891e-03 1.4457868541995308e-01 0.0000000000000000e+00  -4.7076218013042126e-02 -1.6442545557575231e-01 0.0000000000000000e+00  -3.3625725974067533e-03 1.8640780065241006e-01 0.0000000000000000e+00  -8.7515758980040489e-03 1.9461042451794186e-01 0.0000000000000000e+00  3.1495588747959324e-02 -2.0238090341365006e-02 0.0000000000000000e+00  4.0672351318138461e-03 1.1319823878336183e-01 0.0000000000000000e+00  -3.5246302363075421e-03 1.7238251544746480e-01 0.0000000000000000e+00  3.8866836361933711e-04 1.8155336145595713e-01 0.0000000000000000e+00  -9.7936872741242586e-03 1.2845318934269628e-01 0.0000000000000000e+00  1.1427079778915492e-03 1.5919739838181354e-01 0.0000000000000000e+00  5.4920527295318601e-03 1.2273752022676532e-01 0.0000000000000000e+00  -2.5420802901938914e-03 1.2733542114059687e-01 0.0000000000000000e+00  -1.1592766430120875e-03 1.5487945996788546e-01 0.0000000000000000e+00  -1.8180090018320117e-03 1.9697135983968098e-01 0.0000000000000000e+00  4.5189709569663653e-03 1.3901488893162881e-01 0.0000000000000000e+00  2.3181876601074229e-03 1.3520390943385871e-01 0.0000000000000000e+00  -3.7853756969253374e-02 -2.0302929385108734e-01 0.0000000000000000e+00  5.2837969825365712e-02 -1.8961321431376846e-01 0.0000000000000000e+00  -8.0328672677027965e-02 1.0578380371410294e-01 0.0000000000000000e+00  2.5383931060859684e-02 -1.6568883780302376e-01 0.0000