<?xml version="1.0"?>
<VTKFile type="UnstructuredGrid"  version="0.1"  >
<UnstructuredGrid>
<Piece  NumberOfPoints="1419" NumberOfCells="2698">
<Points>
<DataArray  type="Float64"  NumberOfComponents="3"  format="ascii">-1.561849952222012e-09 -3.71896402356872e-07 0  2.569157841707609e-09 0.4099996266551861 0  2.500000001407864 -5.439697128208577e-07 0  2.500000001407867 0.4099994560302924 0  0.6000000011592224 0.1899994344636636 0  0.6000000025208256 0.20999943583393 0  0.25 0.2 0  0.1500000004411256 0.1999996306119558 0  0.2489897948556636 0.21 0  0.2489897948556636 0.19 0  0.6000000021225055 0.1999994319258418 0  2.523611320341177e-09 0.380713912472687 0  2.393662563004273e-09 0.351428198467531 0  2.174389900099152e-09 0.3221424845976096 0  1.864453196670781e-09 0.2928567707721462 0  1.478842901392079e-09 0.2635710569216091 0  1.031954391373275e-09 0.2342853429995137 0  5.410863302732873e-10 0.2049996289360536 0  4.68047369327377e-11 0.1757139147437508 0  -4.151585361161179e-10 0.1464282004103332 0  -8.215641604223074e-10 0.1171424859627122 0  -1.140345798295975e-09 0.08785677144428648 0  -1.376463891131851e-09 0.05857105691760623 0  -1.517031880092799e-09 0.02928534245196299 0  0.03015443599482671 -3.719668088359241e-07 0  0.06140001810137911 -3.722215379088328e-07 0  0.09377623873429675 -3.72797596586238e-07 0  0.1273239933267637 -3.73933812561085e-07 0  0.1620856831180198 -3.760586326450072e-07 0  0.1981052398552077 -3.802221871140313e-07 0  0.2354281800916703 -3.879909191979165e-07 0  0.2741016532404275 -4.003687273476562e-07 0  0.3141745475842321 -4.175058963712715e-07 0  0.3556974882406726 -4.388029820770657e-07 0  0.3987229503415408 -4.618648195258296e-07 0  0.4433053023584688 -4.842587776530059e-07 0  0.4895008736796547 -5.042869272093852e-07 0  0.537368059611424 -5.202462042272677e-07 0  0.5869673337992765 -5.313171316124606e-07 0  0.6383613677798359 -5.382340113322697e-07 0  0.6916151144099749 -5.41706346012304e-07 0  0.746795860426344 -5.432393244234725e-07 0  0.8039733474531904 -5.438607346470967e-07 0  0.8632198151407916 -5.440630698538314e-07 0  0.9246101339609857 -5.440945775651823e-07 0  0.9882218824187565 -5.440702670563919e-07 0  1.054135446917258 -5.440404021907452e-07 0  1.122434101920932 -5.440154011615362e-07 0  1.193204178532209 -5.439972441752312e-07 0  1.266535091277879 -5.43985644329447e-07 0  1.342519517448907 -5.4397881008037e-07 0  1.421253449908853 -5.439747597406859e-07 0  1.502836390512583 -5.439723820032886e-07 0  1.587371441165897 -5.439711009378247e-07 0  1.674965420184826 -5.439704226991338e-07 0  1.765729003233206 -5.439700616627837e-07 0  1.859776910287847 -5.439698841546788e-07 0  1.95722797889488 -5.439697910714969e-07 0  2.058205331277786 -5.439697486940034e-07 0  2.162836592597806 -5.439697270663167e-07 0  2.271253958698725 -5.439697179016294e-07 0  2.383594448211287 -5.439697139794431e-07 0  2.500000001407864 0.1024994560300491 0  2.500000001407864 0.204999456029764 0  2.500000001407867 0.3074994560300099 0  2.383594448211523 0.4099994560302935 0  2.271253958699184 0.4099994560302975 0  2.162836592598473 0.4099994560303071 0  2.058205331278663 0.4099994560303277 0  1.957227978895978 0.4099994560303697 0  1.859776910289213 0.4099994560304673 0  1.765729003234924 0.4099994560306442 0  1.674965420187104 0.4099994560310203 0  1.587371441169088 0.4099994560317006 0  1.502836390517377 0.4099994560329969 0  1.421253449916572 0.4099994560355029 0  1.342519517461523 0.409999456039762 0  1.266535091298841 0.4099994560472137 0  1.193204178568058 0.4099994560612595 0  1.122434101981863 0.4099994560864789 0  1.054135447017017 0.4099994561287088 0  0.9882218825842615 0.409999456212528 0  0.924610134227307 0.4099994563667367 0  0.8632198155662039 0.4099994566624793 0  0.8039733481204293 0.4099994572542888 0  0.7467958614578307 0.4099994584402663 0  0.6916151159689422 0.409999460741582 0  0.6383613701015606 0.4099994651772506 0  0.5869673371714297 0.4099994726748129 0  0.5373680643025573 0.4099994840160783 0  0.4895008798865543 0.4099994997102161 0  0.4433053100708098 0.4099995187535531 0  0.3987229593054273 0.4099995398063783 0  0.3556974979968457 0.4099995612383861 0  0.3141745575663291 0.409999581052303 0  0.2741016628528587 0.409999597432606 0  0.235428188915777 0.4099996091872476 0  0.1981052476547295 0.4099996169095539 0  0.1620856898557047 0.409999621437691 0  0.1273239991199394 0.4099996239603971 0  0.09377624377866602 0.4099996254121782 0  0.06140002262443452 0.4099996261660268 0  0.03015444021465055 0.409999626557465 0  0.2497468076502589 0.2050254481002335 0  0.2497468076502614 0.1949745518997913 0  0.2469965201195629 0.1829315219300022 0  0.2439893676221691 0.1762313885425369 0  0.2400332087804228 0.1700440505178792 0  0.2352133915110519 0.1645029766045843 0  0.2296338962170076 0.1597276997493399 0  0.2234150923929529 0.1558212371920216 0  0.216691141717812 0.1528678634864371 0  0.2096071036939898 0.1509312923603371 0  0.2023158062200409 0.150053301430166 0  0.1949745484810268 0.150252831917401 0  0.1877417075200548 0.1515255786475434 0  0.1807733214166199 0.1538440837892115 0  0.1742197230469891 0.1571583286471633 0  0.1682222968131947 0.1613968130933925 0  0.1629104285378225 0.1664680977874529 0  0.158398714091463 0.1722627770525536 0  0.1547844872111785 0.1786558389805728 0  0.1521457196109638 0.185509362482091 0  0.1505393389100421 0.1926754926584912 0  0.1505393396704957 0.2073237686471164 0  0.1521457211393009 0.2144898990792753 0  0.1547844894918062 0.2213434230241575 0  0.1583987171371487 0.2277364856386687 0  0.1629104323379129 0.233531165877933 0  0.1682223013843477 0.2386024519775969 0  0.1742197283753451 0.242840938314686 0  0.1807733275171006 0.2461551857964865 0  0.1877417143954874 0.2484736945460604 0  0.1949745561387542 0.2497464462503738 0  0.2023158146543401 0.249945983316775 0  0.2096071129252202 0.2490680015801814 0  0.2166911517265344 0.2471314425718945 0  0.2234151031802276 0.2441780858393675 0  0.2296339077388624 0.2402716463873813 0  0.2352134036710911 0.235496402397461 0  0.240033221358354 0.2299553748254897 0  0.2439893800163677 0.2237681109297606 0  0.2469965307168574 0.2170681067098914 0  0.2564581047066546 0.2099998164294321 0  0.2639264089407489 0.2099997529976569 0  0.2713947120355077 0.2099997122612442 0  0.2788630152113006 0.2099996822106512 0  0.286331317313161 0.2099996582887004 0  0.2937996204609026 0.2099996379298314 0  0.3012679223256254 0.2099996192987338 0  0.3087362236151556 0.2099996074963918 0  0.3162045265385904 0.2099995959179604 0  0.3236728276959478 0.2099995851294445 0  0.3311411305509161 0.2099995754879775 0  0.3386094316085752 0.2099995666109183 0  0.3460777340856858 0.2099995581202147 0  0.3535460353924118 0.2099995489481402 0  0.3610143368629491 0.209999543649117 0  0.3684826392833683 0.2099995375739943 0  0.375950940580898 0.2099995313662029 0  0.3834192430708326 0.209999525429373 0  0.390887544403223 0.2099995196997049 0  0.3983558469446249 0.2099995142683752 0  0.4058241482408976 0.2099995088092591 0  0.4132924506662916 0.2099995031470924 0  0.4207607520444702 0.2099994965241906 0  0.4282290536418561 0.2099994930186798 0  0.4356973560331182 0.2099994887016349 0  0.4431656575549764 0.2099994840285185 0  0.4506339600095478 0.2099994793234907 0  0.4581022614444105 0.2099994746783747 0  0.4655705639457218 0.2099994700892601 0  0.4730388652744246 0.2099994655653218 0  0.4805071678397073 0.2099994610940069 0  0.4879754691598067 0.209999456645026 0  0.4954437717817974 0.2099994522987765 0  0.5029120728805032 0.2099994481638457 0  0.5103803755502559 0.2099994441509326 0  0.5178486767491196 0.2099994403808859 0  0.52531697994292 0.2099994366559049 0  0.5327852809481511 0.2099994330943162 0  0.5402535839934934 0.2099994298957563 0  0.5477218849749703 0.2099994271418122 0  0.5551901883335912 0.2099994236574843 0  0.5626584895907089 0.2099994185989551 0  0.5701267911237747 0.2099994225297788 0  0.5775950954218446 0.2099994249578265 0  0.5850633969120592 0.2099994273773584 0  0.5925317004493281 0.2099994317325851 0  0.6000000031836707 0.2049994334786384 0  0.6000000008145383 0.1949994333489275 0  0.5925316990796865 0.1899994289956824 0  0.5850633982526026 0.189999424113944 0  0.5775950948376518 0.1899994210307035 0  0.5701267940877743 0.1899994185762398 0  0.5626584910134854 0.1899994147139622 0  0.5551901875297148 0.1899994192972098 0  0.5477218862831367 0.1899994219192707 0  0.5402535824303838 0.1899994244111551 0  0.5327852811866887 0.1899994273180154 0  0.5253169772827464 0.1899994306422411 0  0.5178486755701751 0.1899994343377625 0  0.5103803718413619 0.1899994383036131 0  0.5029120702526791 0.1899994424875371 0  0.4954437666982804 0.1899994468132791 0  0.4879754650059258 0.1899994512610993 0  0.480507161518592 0.1899994558335001 0  0.4730388595689725 0.1899994605212106 0  0.465570556181867 0.1899994653418108 0  0.4581022543581846 0.189999470253078 0  0.4506339511282662 0.1899994752177044 0  0.4431656492484808 0.1899994802488035 0  0.4356973459894073 0.1899994853312852 0  0.428229043879075 0.1899994902427734 0  0.4207607408025798 0.1899994942273022 0  0.4132924379240247 0.1899995012752528 0  0.4058241359502961 0.1899995075457807 0  0.3983558329993569 0.1899995133611107 0  0.3908875309466582 0.1899995192803736 0  0.3834192279628843 0.1899995253158673 0  0.3759509258527687 0.1899995315080728 0  0.3684826228739233 0.1899995379301652 0  0.361014320884502 0.1899995440006901 0  0.3535460178837916 0.1899995494580357 0  0.3460777147055751 0.1899995588763209 0  0.3386094127273886 0.1899995678330911 0  0.3311411094873312 0.1899995768665056 0  0.3236728077621009 0.1899995866155579 0  0.316204504560433 0.1899995973719072 0  0.3087362028911356 0.189999608732279 0  0.3012678995545373 0.18999962043651 0  0.2937995967946118 0.1899996389285037 0  0.2863312953670245 0.1899996593567077 0  0.2788629929229436 0.1899996832231746 0  0.271394691512061 0.189999713005757 0  0.2639263900964685 0.1899997537246149 0  0.2564580897160527 0.189999817109
[...]
<PointData  Vectors="f_30-0"> 
<DataArray  type="Float64"  Name="f_30-0"  NumberOfComponents="3" format="ascii">0.0000000000000000e+00 0.0000000000000000e+00 0.0000000000000000e+00  0.0000000000000000e+00 0.0000000000000000e+00 0.0000000000000000e+00  0.0000000000000000e+00 0.0000000000000000e+00 0.0000000000000000e+00  0.0000000000000000e+00 0.0000000000000000e+00 0.0000000000000000e+00  6.9303494674920916e-03 -1.8766193437566983e-02 0.0000000000000000e+00  -3.5312713641448756e-03 -1.6304790636693697e-02 0.0000000000000000e+00  0.0000000000000000e+00 0.0000000000000000e+00 0.0000000000000000e+00  0.0000000000000000e+00 0.0000000000000000e+00 0.0000000000000000e+00  0.0000000000000000e+00 0.0000000000000000e+00 0.0000000000000000e+00  0.0000000000000000e+00 0.0000000000000000e+00 0.0000000000000000e+00  9.3154556311532948e-03 -5.6857342015444880e-02 0.0000000000000000e+00  0.0000000000000000e+00 0.0000000000000000e+00 0.0000000000000000e+00  0.0000000000000000e+00 0.0000000000000000e+00 0.0000000000000000e+00  0.0000000000000000e+00 0.0000000000000000e+00 0.0000000000000000e+00  0.0000000000000000e+00 0.0000000000000000e+00 0.0000000000000000e+00  0.0000000000000000e+00 0.0000000000000000e+00 0.0000000000000000e+00  0.0000000000000000e+00 0.0000000000000000e+00 0.0000000000000000e+00  0.0000000000000000e+00 0.0000000000000000e+00 0.0000000000000000e+00  0.0000000000000000e+00 0.0000000000000000e+00 0.0000000000000000e+00  0.0000000000000000e+00 0.0000000000000000e+00 0.0000000000000000e+00  0.0000000000000000e+00 0.0000000000000000e+00 0.0000000000000000e+00  0.0000000000000000e+00 0.0000000000000000e+00 0.0000000000000000e+00  0.0000000000000000e+00 0.0000000000000000e+00 0.0000000000000000e+00  0.0000000000000000e+00 0.0000000000000000e+00 0.0000000000000000e+00  0.0000000000000000e+00 0.0000000000000000e+00 0.0000000000000000e+00  0.0000000000000000e+00 0.0000000000000000e+00 0.0000000000000000e+00  0.0000000000000000e+00 0.0000000000000000e+00 0.0000000000000000e+00  0.0000000000000000e+00 0.0000000000000000e+00 0.0000000000000000e+00  0.0000000000000000e+00 0.0000000000000000e+00 0.0000000000000000e+00  0.0000000000000000e+00 0.0000000000000000e+00 0.0000000000000000e+00  0.0000000000000000e+00 0.0000000000000000e+00 0.0000000000000000e+00  0.0000000000000000e+00 0.0000000000000000e+00 0.0000000000000000e+00  0.0000000000000000e+00 0.0000000000000000e+00 0.0000000000000000e+00  0.0000000000000000e+00 0.0000000000000000e+00 0.0000000000000000e+00  0.0000000000000000e+00 0.0000000000000000e+00 0.0000000000000000e+00  0.0000000000000000e+00 0.0000000000000000e+00 0.0000000000000000e+00  0.0000000000000000e+00 0.0000000000000000e+00 0.0000000000000000e+00  0.0000000000000000e+00 0.0000000000000000e+00 0.0000000000000000e+00  0.0000000000000000e+00 0.0000000000000000e+00 0.0000000000000000e+00  0.0000000000000000e+00 0.0000000000000000e+00 0.0000000000000000e+00  0.0000000000000000e+00 0.0000000000000000e+00 0.0000000000000000e+00  0.0000000000000000e+00 0.0000000000000000e+00 0.0000000000000000e+00  0.0000000000000000e+00 0.0000000000000000e+00 0.0000000000000000e+00  0.0000000000000000e+00 0.0000000000000000e+00 0.0000000000000000e+00  0.0000000000000000e+00 0.0000000000000000e+00 0.0000000000000000e+00  0.0000000000000000e+00 0.0000000000000000e+00 0.0000000000000000e+00  0.0000000000000000e+00 0.0000000000000000e+00 0.0000000000000000e+00  0.0000000000000000e+00 0.0000000000000000e+00 0.0000000000000000e+00  0.0000000000000000e+00 0.0000000000000000e+00 0.0000000000000000e+00  0.0000000000000000e+00 0.0000000000000000e+00 0.0000000000000000e+00  0.0000000000000000e+00 0.0000000000000000e+00 0.0000000000000000e+00  0.0000000000000000e+00 0.0000000000000000e+00 0.0000000000000000e+00  0.0000000000000000e+00 0.0000000000000000e+00 0.0000000000000000e+00  0.0000000000000000e+00 0.0000000000000000e+00 0.0000000000000000e+00  0.0000000000000000e+00 0.0000000000000000e+00 0.0000000000000000e+00  0.0000000000000000e+00 0.0000000000000000e+00 0.0000000000000000e+00  0.0000000000000000e+00 0.0000000000000000e+00 0.0000000000000000e+00  0.0000000000000000e+00 0.0000000000000000e+00 0.0000000000000000e+00  0.0000000000000000e+00 0.0000000000000000e+00 0.0000000000000000e+00  0.0000000000000000e+00 0.0000000000000000e+00 0.0000000000000000e+00  0.0000000000000000e+00 0.0000000000000000e+00 0.0000000000000000e+00  0.0000000000000000e+00 0.0000000000000000e+00 0.0000000000000000e+00  2.0358384926276124e-09 8.7233610057427304e-10 0.0000000000000000e+00  -5.7881381301904193e-11 1.0885381869410204e-09 0.0000000000000000e+00  -2.4619018439007450e-09 9.5767094457094331e-10 0.0000000000000000e+00  0.0000000000000000e+00 0.0000000000000000e+00 0.0000000000000000e+00  0.0000000000000000e+00 0.0000000000000000e+00 0.0000000000000000e+00  0.0000000000000000e+00 0.0000000000000000e+00 0.0000000000000000e+00  0.0000000000000000e+00 0.0000000000000000e+00 0.0000000000000000e+00  0.0000000000000000e+00 0.0000000000000000e+00 0.0000000000000000e+00  0.0000000000000000e+00 0.0000000000000000e+00 0.0000000000000000e+00  0.0000000000000000e+00 0.0000000000000000e+00 0.0000000000000000e+00  0.0000000000000000e+00 0.0000000000000000e+00 0.0000000000000000e+00  0.0000000000000000e+00 0.0000000000000000e+00 0.0000000000000000e+00  0.0000000000000000e+00 0.0000000000000000e+00 0.0000000000000000e+00  0.0000000000000000e+00 0.0000000000000000e+00 0.0000000000000000e+00  0.0000000000000000e+00 0.0000000000000000e+00 0.0000000000000000e+00  0.0000000000000000e+00 0.0000000000000000e+00 0.0000000000000000e+00  0.0000000000000000e+00 0.0000000000000000e+00 0.0000000000000000e+00  0.0000000000000000e+00 0.0000000000000000e+00 0.0000000000000000e+00  0.0000000000000000e+00 0.0000000000000000e+00 0.0000000000000000e+00  0.0000000000000000e+00 0.0000000000000000e+00 0.0000000000000000e+00  0.0000000000000000e+00 0.0000000000000000e+00 0.0000000000000000e+00  0.0000000000000000e+00 0.0000000000000000e+00 0.0000000000000000e+00  0.0000000000000000e+00 0.0000000000000000e+00 0.0000000000000000e+00  0.0000000000000000e+00 0.0000000000000000e+00 0.0000000000000000e+00  0.0000000000000000e+00 0.0000000000000000e+00 0.0000000000000000e+00  0.0000000000000000e+00 0.0000000000000000e+00 0.0000000000000000e+00  0.0000000000000000e+00 0.0000000000000000e+00 0.0000000000000000e+00  0.0000000000000000e+00 0.0000000000000000e+00 0.0000000000000000e+00  0.0000000000000000e+00 0.0000000000000000e+00 0.0000000000000000e+00  0.0000000000000000e+00 0.0000000000000000e+00 0.0000000000000000e+00  0.0000000000000000e+00 0.0000000000000000e+00 0.0000000000000000e+00  0.0000000000000000e+00 0.0000000000000000e+00 0.0000000000000000e+00  0.0000000000000000e+00 0.0000000000000000e+00 0.0000000000000000e+00  0.0000000000000000e+00 0.0000000000000000e+00 0.0000000000000000e+00  0.0000000000000000e+00 0.0000000000000000e+00 0.0000000000000000e+00  0.0000000000000000e+00 0.0000000000000000e+00 0.0000000000000000e+00  0.0000000000000000e+00 0.0000000000000000e+00 0.0000000000000000e+00  0.0000000000000000e+00 0.0000000000000000e+00 0.0000000000000000e+00  0.0000000000000000e+00 0.0000000000000000e+00 0.0000000000000000e+00  0.0000000000000000e+00 0.0000000000000000e+00 0.0000000000000000e+00  0.0000000000000000e+00 0.0000000000000000e+00 0.0000000000000000e+00  0.0000000000000000e+00 0.0000000000000000e+00 0.0000000000000000e+00  0.0000000000000000e+00 0.0000000000000000e+00 0.0000000000000000e+00  0.0000000000000000e+00 0.0000000000000000e+00 0.0000000000000000e+00  0.0000000000000000e+00 0.0000000000000000e+00 0.0000000000000000e+00  0.0000000000000000e+00 0.0000000000000000e+00 0.0000000000000000e+00  0.0000000000000000e+00 0.0000000000000000e+00 0.0000000000000000e+00  0.0000000000000000e+00 0.0000000000000000e+00 0.0000000000000000e+00  0.0000000000000000e+00 0.0000000000000000e+00 0.0000000000000000e+00  0.0000000000000000e+00 0.0000000000000000e+00 0.0000000000000000e+00  0.0000000000000000e+00 0.0000000000000000e+00 0.0000000000000000e+00  0.0000000000000000e+00 0.0000000000000000e+00 0.0000000000000000e+00  0.0000000000000000e+00 0.0000000000000000e+00 0.0000000000000000e+00  0.0000000000000000e+00 0.0000000000000000e+00 0.0000000000000000e+00  0.0000000000000000e+00 0.0000000000000000e+00 0.0000000000000000e+00  0.0000000000000000e+00 0.0000000000000000e+00 0.0000000000000000e+00  0.0000000000000000e+00 0.0000000000000000e+00 0.0000000000000000e+00  0.0000000000000000e+00 0.0000000000000000e+00 0.0000000000000000e+00  0.0000000000000000e+00 0.0000000000000000e+00 0.0000000000000000e+00  0.0000000000000000e+00 0.0000000000000000e+00 0.0000000000000000e+00  0.0000000000000000e+00 0.0000000000000000e+00 0.0000000000000000e+00  0.0000000000000000e+00 0.0000000000000000e+00 0.0000000000000000e+00  0.0000000000000000e+00 0.0000000000000000e+00 0.0000000000000000e+00  0.0000000000000000e+00 0.0000000000000000e+00 0.0000000000000000e+00  0.0000000000000000e+00 0.0000000000000000e+00 0.0000000000000000e+00  0.0000000000000000e+00 0.0000000000000000e+00 0.0000000000000000e+00  0.0000000000000000e+00 0.0000000000000000e+00 0.0000000000000000e+00  0.0000000000000000e+00 0.0000000000000000e+00 0.0000000000000000e+00  0.0000000000000000e+00 0.0000000000000000e+00 0.0000000000000000e+00  0.0000000000000000e+00 0.0000000000000000e+00 0.0000000000000000e+00  0.0000000000000000e+00 0.0000000000000000e+00 0.0000000000000000e+00  0.0000000000000000e+00 0.0000000000000000e+00 0.0000000000000000e+00  0.0000000000000000e+00 0.0000000000000000e+00 0.0000000000000000e+00  0.0000000000000000e+00 0.0000000000000000e+00 0.0000000000000000e+00  0.0000000000000000e+00 0.0000000000000000e+00 0.0000000000000000e+00  0.0000000000000000e+00 0.0000000000000000e+00 0.0000000000000000e+00  0.0000000000000000e+00 0.0000000000000000e+00 0.0000000000000000e+00  0.0000000000000000e+00 0.0000000000000000e+00 0.0000000000000000e+00  0.0000000000000000e+00 0.0000000000000000e+00 0.0000000000000000e+00  0.0000000000000000e+00 0.0000000000000000e+00 0.0000000000000000e+00  0.0000000000000000e+00 0.0000000000000000e+00 0.0000000000000000e+00  3.2054699099706457e-02 6.4902544352218983e-02 0.0000000000000000e+00  2.4732217955121840e-02 2.3828529970848389e-02 0.0000000000000000e+00  1.4866349180031099e-02 -8.5844982112061544e-03 0.0000000000000000e+00  1.5601053258396643e-02 -3.5519447324544068e-02 0.0000000000000000e+00  7.4988492772982305e-03 -4.3151447491733212e-02 0.0000000000000000e+00  1.4056605590305735e-02 -5.9952921215763288e-02 0.0000000000000000e+00  9.4785560057591752e-03 -6.1505580076853708e-02 0.0000000000000000e+00  -2.1207806700212391e-03 -6.3578998659634331e-02 0.0000000000000000e+00  1.3015209879288567e-02 -5.6564428672000150e-02 0.0000000000000000e+00  -2.5782659242951050e-03 -5.8307759442740366e-02 0.0000000000000000e+00  1.1297256173208875e-02 -5.5929865791527270e-02 0.0000000000000000e+00  -2.5230436827869138e-03 -5.4361751695427472e-02 0.0000000000000000e+00  1.1138293190555287e-02 -5.4657581466012135e-02 0.0000000000000000e+00  3.7682478393530149e-05 -4.9484346360406016e-02 0.0000000000000000e+00  -1.2526981046669340e-03 -4.8241607102879801e-02 0.0000000000000000e+00  3.7179412229277646e-03 -4.3713064277303156e-02 0.0000000000000000e+00  -1.7349456544485343e-03 -4.5135426108340988e-02 0.0000000000000000e+00  4.2963356053771608e-03 -4.2735818598874147e-02 0.0000000000000000e+00  -2.5968601607417523e-03 -4.3027839616199437e-02 0.0000000000000000e+00  5.5328343586109573e-03 -4.2677791068100455e-02 0.0000000000000000e+00  -4.0058352115636495e-03 -4.2535446624799460e-02 0.0000000000000000e+00  7.8109307388083303e-03 -4.3295456170118596e-02 0.0000000000000000e+00  -1.8871078203893995e-03 -4.1545314836126217e-02 0.0000000000000000e+00  -3.6558752626216248e-03 -4.4222659415718409e-02 0.0000000000000000e+00  2.2504200516036549e-03 -4.6026050299768015e-02 0.0000000000000000e+00  -2.2700054613509703e-03 -4.7211187661698607e-02 0.0000000000000000e+00  2.4751916281087818e-03 -4.9648376387782210e-02 0.0000000000000000e+00  -4.8613073113285676e-03 -5.2865935310859161e-02 0.0000000000000000e+00  5.8027646384221348e-03 -5.4281477842994696e-02 0.0000000000000000e+00  -7.4905993538791410e-03 -5.6311433137440511e-02 0.0000000000000000e+00  6.9611038865492261e-03 -5.9931623933845879e-02 0.0000000000000000e+00  -6.9111599321331485e-03 -6.1418059286748601e-02 0.0000000000000000e+00  5.4808018257716078e-03 -6.9961795872761107e-02 0.0000000000000000e+00  -7.7027747310613702e-03 -7.2483773688149428e-02 0.0000000000000000e+00  5.9437801916434061e-03 -7.4058576906915946e-02 0.0000000000000000e+00  -1.0259516932233223e-02 -7.4416461918770174e-02 0.0000000000000000e+00  8.3829846603809457e-03 -8.0767533289430940e-02 0.0000000000000000e+00  -1.3284502505441017e-02 -8.8558394690709627e-02 0.0000000000000000e+00  9.9469212926454869e-03 -9.6058564409432792e-02 0.0000000000000000e+00  -1.3201967083100809e-02 -9.2639747606328635e-02 0.0000000000000000e+00  8.3909991915770976e-03 -1.0205606964110421e-01 0.0000000000000000e+00  -6.8792564834136401e-05 -9.9344122817256589e-02 0.0000000000000000e+00  -1.7370921153662806e-02 -1.0209783246552191e-01 0.0000000000000000e+00  9.3120920242570123e-03 -9.3655868303522710e-02 0.0000000000000000e+00  -1.1270816276735743e-02 -9.8872412741049062e-02 0.0000000000000000e+00  1.7616205604780905e-02 -7.2730709608279029e-02 0.0000000000000000e+00  1.9189308997081159e-02 -5.0069695532920948e-02 0.0000000000000000e+00  -1.3438489158455512e-02 -4.3085638799137412e-02 0.0000000000000000e+00  -3.6583585568841902e-03 -6.7280191866957995e-02 0.0000000000000000e+00  1.6297241498193796e-02 -9.1446273622160582e-02 0.0000000000000000e+00  -4.1517414184086407e-03 -9.3997152234929868e-02 0.0000000000000000e+00  1.7320992450405720e-02 -1.0457726811201301e-01 0.0000000000000000e+00  3.9809462087916124e-03 -9.4347016903413766e-02 0.0000000000000000e+00  -1.0645367913105939e-02 -9.8782307474663378e-02 0.0000000000000000e+00  1.3812837280119740e-02 -8.6839564731917215e-02 0.0000000000000000e+00  -1.0623178336242494e-02 -8.6312827106117165e-02 0.0000000000000000e+00  1.1754902329459990e-02 -8.3014174643724195e-02 0.0000000000000000e+00  -9.2447216446109488e-03 -8.1293924846899332e-02 0.0000000000000000e+00  9.3512897243799697e-03 -7.4569232874716659e-02 0.0000000000000000e+00  -8.7095140899639597e-03 -7.0565275068950009e-02 0.0000000000000000e+00  8.3531378999151008e-03 -6.3234451254860782e-02 0.0000000000000000e+00  -8.5703247614696311e-03 -6.0877317596462963e-02 0.0000000000000000e+00  6.6997115235597161e-03 -5.8137953678793118e-02 0.0000000000000000e+00  -7.5897617098404108e-03 -5.6964941061118039e-02 0.0000000000000000e+00  5.6799426661302858e-03 -5.3589541426543034e-02 0.0000000000000000e+00  -7.1577402672726087e-03 -5.1093029684559997e-02 0.0000000000000000e+00  5.2225378668137980e-03 -4.7026771426490623e-02 0.0000000000000000e+00  -6.8544469701440590e-03 -4.5838071377753059e-02 0.0000000000000000e+00  4.7013565312530332e-03 -4.4866105650709621e-02 0.0000000000000000e+00  -6.1112367868931799e-03 -4.3489548709145787e-02 0.0000000000000000e+00  4.8052640418099028e-03 -4.4264355247260918e-02 0.0000000000000000e+00  -2.2575881331087658e-03 -4.1822556670360854e-02 0.0000000000000000e+00  -5.5292450260895423e-03 -4.3012394528185088e-02 0.0000000000000000e+00  9.7667985073162538e-04 -4.1117393496235680e-02 0.0000000000000000e+00  -5.1216344027326033e-03 -4.3977973825254382e-02 0.0000000000000000e+00  1.5916011088707280e-03 -4.6129761659385642e-02 0.0000000000000000e+00  -4.7917620825291456e-03 -4.6901785639151421e-02 0.0000000000000000e+00  1.6880923433240012e-03 -4.7432707067222135e-02 0.0000000000000000e+00  -4.4811693660785539e-03 -4.5653915714310711e-02 0.0000000000000000e+00  1.9796831858976314e-03 -4.8210633157490371e-02 0.0000000000000000e+00  -8.0054210982131284e-06 -4.9695738993904275e-02 0.0000000000000000e+00  -1.1344115015702930e-02 -5.5129595840904433e-02 0.0000000000000000e+00  3.0350485476328551e-03 -5.5376197378983159e-02 0.0000000000000000e+00  -1.2185989234109431e-02 -5.8057861723688715e-02 0.0000000000000000e+00  3.6246848460574155e-03 -6.0360415848622187e-02 0.0000000000000000e+00  -1.3690908434268852e-02 -5.9525724742065737e-02 0.0000000000000000e+00  3.1035233521858512e-03 -6.3197889270143942e-02 0.0000000000000000e+00  -9.4265047929909685e-03 -6.0760309573868319e-02 0.0000000000000000e+00  -1.4660926695551238e-02 -6.0128145359809010e-02 0.0000000000000000e+00  -7.8418979614216719e-03 -4.3958611118201082e-02 0.0000000000000000e+00  -1.7181970931109517e-02 -3.6158104512711849e-02 0.0000000000000000e+00  -1.5742691646009735e-02 -8.9869879704617250e-03 0.0000000000000000e+00  -2.4823932801917116e-02 2.2308531169221893e-02 0.0000000000000000e+00  -3.2980396118883731e-02 6.4714736256770530e-02 0.0000000000000000e+00  -1.0399296122038701e-04 -1.2632463064473255e-02 0.0000000000000000e+00  -1.1688218398480776e-03 5.6596788980676042e-02 0.0000000000000000e+00  -1.3590599331852365e-03 7.5137109416656175e-02 0.0000000000000000e+00  2.9359157646540158e-03 7.6455531179753913e-02 0.0000000000000000e+00  8.1427535445451342e-04 1.8716052756437590e-02 0.0000000000000000e+00  2.2266798106539688e-04 7.0110887731569399e-02 0.0000000000000000e+00  -5.0839084992025312e-05 3.8831792557120846e-02 0.0000000000000000e+00  1.3504189633270548e-04 6.2830651621524874e-02 0.0000000000000000e+00  1.6494100156467868e-03 4.9297846171557323e-02 0.0000000000000000e+00  1.7511845820632215e-04 4.6603562285576293e-02 0.0000000000000000e+00  -2.6686596177950768e-04 5.5809369492220602e-02 0.0000000000000000e+00  1.1946095354594269e-03 3.7686813685632481e-02 0.0000000000000000e+00  6.9154717852199594e-05 4.4820029871187002e-02 0.0000000000000000e+00  -1.2135644352791481e-03 4.1692104198638898e-02 0.0000000000000000e+00  -6.1219908658024228e-05 3.6215162677129313e-02 0.0000000000000000e+00  -1.3730617354644034e-04 4.0917614438066678e-02 0.0000000000000000e+00  1.7226935725619822e-04 4.9810830337465063e-02 0.0000000000000000e+00  -5.7216401411968991e-04 3.5142288279150183e-02 0.0000000000000000e+00  1.6681174886345212e-04 3.7492310092312610e-02 0.0000000000000000e+00  -3.0402626084545000e-04 3.3451542529177314e-02 0.0000000000000000e+00  -9.4319521832790759e-04 3.5035370261718712e-02 0.0000000000000000e+00  4.3642320605383157e-04 2.7146914404137495e-02 0.0000000000000000e+00  -6.6942157935753082e-05 3.1224404978772359e-02 0.0000000000000000e+00  -2.2248274265937026e-04 6.6975315387985512e-02 0.0000000000000000e+00  9.8519933120423347e-05 3.8793957458514126e-02 0.0000000000000000e+00  4.9103853833224213e-03 5.9188215557421792e-02 0.0000000000000000e+00  -1.2669632679150507e-02 6.3657003850582856e-04 0.0000000000000000e+00  -2.6597861662342099e-03 4.5424331929733344e-02 0.0000000000000000e+00  -4.1151793638909157e-03 5.1819674640028061e-02 0.0000000000000000e+00  5.2171319046347680e-03 3.0764313721035448e-02 0.0000000000000000e+00  -3.3211838016273844e-03 3.3630700571874117e-02 0.0000000000000000e+00  -1.5956631934918111e-03 3.2309393227270403e-02 0.0000000000000000e+00  -1.7384031937388530e-03 4.0383869518109183e-02 0.0000000000000000e+00  -1.7328970827854347e-03 2.5651493042405316e-02 0.0000000000000000e+00  -5.9790416533697633e-04 2.9161851689920134e-02 0.0000000000000000e+00  -1.3737326284475537e-03 3.0052047610901633e-02 0.0000000000000000e+00  -5.2282865380606314e-04 2.5377964826705721e-02 0.0000000000000000e+00  -7.0797868090052125e-04 2.7657675084129262e-02 0.0000000000000000e+00  -1.7462057640951682e-03 3.7194627401624061e-02 0.0000000000000000e+00  2.9844737865413807e-04 2.6551454274769858e-02 0.0000000000000000e+00  1.0638388114800732e-04 2.4560708935722250e-02 0.0000000000000000e+00  -3.5943334294901556e-03 -3.0298368357377752e-02 0.0000000000000000e+00  2.3482215076139706e-03 -2.9294393068977430e-02 0.0000000000000000e+00  -2.1397151773132186e-02 3.9071899048584754e-02 0.0000000000000000e+00  1.3079063610189165e-02 7.1659084218713906e-0