<?xml version="1.0"?>
<VTKFile type="UnstructuredGrid"  version="0.1"  >
<UnstructuredGrid>
<Piece  NumberOfPoints="1419" NumberOfCells="2698">
<Points>
<DataArray  type="Float64"  NumberOfComponents="3"  format="ascii">1.735221639813094e-07 -2.73263802738486e-06 0  2.035936852433669e-07 0.4099972550816571 0  2.500000418367366 -4.180645725552245e-06 0  2.50000041836741 0.4099958193543104 0  0.6000004664402606 0.189995679839095 0  0.6000005148742928 0.2099956722737846 0  0.25 0.2 0  0.1500001861948976 0.1999972883432939 0  0.2489897948556636 0.21 0  0.2489897948556636 0.19 0  0.6000005042124028 0.1999956595127138 0  2.032085441961608e-07 0.3807115416641249 0  2.021184556768312e-07 0.3514258297389004 0  2.00315497258409e-07 0.3221401189513232 0  1.978471387293771e-07 0.2928544085383671 0  1.948618386674165e-07 0.263568697916049 0  1.914892333428354e-07 0.2342829866942248 0  1.878926177941356e-07 0.204997274286959 0  1.843486316082933e-07 0.1757115608000606 0  1.81115097042974e-07 0.1464258461280152 0  1.783393249334447e-07 0.1171401304957461 0  1.762220792474365e-07 0.08785441426633059 0  1.746927560050307e-07 0.05856869796434633 0  1.738029164109176e-07 0.02928298217206919 0  0.03015461082999781 -2.733228162408114e-06 0  0.06140019214277353 -2.735364160378513e-06 0  0.09377641145206196 -2.740199436593751e-06 0  0.1273241643288729 -2.749748847567265e-06 0  0.1620858523594305 -2.767639720722624e-06 0  0.1981054081335923 -2.80282000860153e-06 0  0.2354283497278911 -2.86884635935938e-06 0  0.2741018281093932 -2.97498297124231e-06 0  0.3141747326833623 -3.123290211307759e-06 0  0.3556976906022731 -3.30952440191005e-06 0  0.3987231766023057 -3.51166971119089e-06 0  0.4433055590437011 -3.70548623889711e-06 0  0.4895011652038695 -3.87398712704093e-06 0  0.5373683862154899 -4.002621746619567e-06 0  0.5869676909656409 -4.087726924987473e-06 0  0.6383617484462654 -4.139087321814893e-06 0  0.6916155102830235 -4.164255633776791e-06 0  0.7467962652769365 -4.175287999615701e-06 0  0.8039737575483722 -4.179766981141082e-06 0  0.8632202281887457 -4.181244500872499e-06 0  0.9246105486857285 -4.181494090885831e-06 0  0.9882222980576143 -4.181336712854153e-06 0  1.054135863119546 -4.181134321906432e-06 0  1.122434518433439 -4.180962237972533e-06 0  1.19320459523841 -4.180836729646414e-06 0  1.26653550809645 -4.18075635161953e-06 0  1.342519934329383 -4.180708920993866e-06 0  1.421253866825002 -4.180680793297175e-06 0  1.502836807449312 -4.180664274690532e-06 0  1.587371858113601 -4.18065537288805e-06 0  1.674965837138305 -4.180650659344293e-06 0  1.76572942018975 -4.18064815012391e-06 0  1.859777327245896 -4.180646916393398e-06 0  1.957228395853719 -4.180646269430021e-06 0  2.058205748236984 -4.180645974887571e-06 0  2.162837009557188 -4.180645824565051e-06 0  2.271254375658183 -4.180645760866074e-06 0  2.383594865170779 -4.180645733604977e-06 0  2.500000418367371 0.1024958193540407 0  2.50000041836739 0.2049958193537664 0  2.500000418367405 0.3074958193540235 0  2.383594865171078 0.4099958193543182 0  2.271254375658772 0.4099958193543465 0  2.162837009558143 0.409995819354413 0  2.058205748238507 0.4099958193545563 0  1.957228395856178 0.4099958193548479 0  1.85977732725024 0.4099958193555264 0  1.765729420197446 0.4099958193567565 0  1.6749658371528 0.4099958193593704 0  1.587371858140517 0.4099958193640996 0  1.502836807499659 0.4099958193731109 0  1.421253866919632 0.4099958193905371 0  1.34251993449928 0.4099958194201641 0  1.266535508395686 0.4099958194720282 0  1.193204595769417 0.4099958195699124 0  1.122434519355613 0.409995819745941 0  1.054135864647646 0.4099958200412973 0  0.988222300612309 0.4099958206297541 0  0.9246105528033045 0.4099958217162937 0  0.8632202347932504 0.4099958238103242 0  0.8039737678786554 0.4099958280275651 0  0.7467962810281989 0.4099958365428669 0  0.6916155332684089 0.4099958532490631 0  0.6383617803208147 0.4099958860450925 0  0.5869677331863709 0.4099959429569736 0  0.5373684381255657 0.4099960318917582 0  0.4895012253960427 0.4099961600952735 0  0.443305626493061 0.4099963213373236 0  0.3987232495529734 0.4099965038475655 0  0.3556977664179816 0.409996691486511 0  0.3141748084226403 0.4099968645502838 0  0.27410189970469 0.4099970063389028 0  0.2354284150044759 0.40999710708362 0  0.1981054655564652 0.4099971727775102 0  0.1620859017451987 0.4099972111010564 0  0.1273242066579642 0.4099972323844293 0  0.09377644823012421 0.4099972446176829 0  0.06140022509956432 0.4099972509644643 0  0.03015464154871882 0.4099972542592427 0  0.2497468076502589 0.2050254481002335 0  0.2497468076502614 0.1949745518997913 0  0.2469965757102559 0.1829304126409842 0  0.2439894515151619 0.1762298722637616 0  0.2400333118032292 0.1700422895497786 0  0.2352135081269603 0.1645010578842198 0  0.2296340234817544 0.1597256673103169 0  0.2234152281410842 0.1558191224603885 0  0.2166912843742926 0.1528656885964 0  0.2096072520060397 0.1509290738856826 0  0.2023159595205044 0.1500510492507259 0  0.1949747059887801 0.1502505555687375 0  0.1877418688177762 0.1515232839635393 0  0.180773486059411 0.1538417758577638 0  0.1742198908175959 0.1571560106712007 0  0.1682224674395213 0.1613944878580805 0  0.1629106019254572 0.1664657670072006 0  0.1583988900733432 0.1722604422476131 0  0.1547846657438204 0.1786535011506911 0  0.1521459005818054 0.1855070225212848 0  0.1505395223211939 0.192673151212482 0  0.1505395277367645 0.2073214261584518 0  0.1521459114667466 0.2144875569920739 0  0.1547846819784373 0.2213410820759238 0  0.1583989117415747 0.2277341467265748 0  0.1629106289361084 0.2335288301200202 0  0.1682224998878012 0.2386001210254634 0  0.1742199285826057 0.2428386140152946 0  0.1807735292426101 0.2461528707330764 0  0.1877419173541786 0.2484713926978954 0  0.1949747599188816 0.2497441624594976 0  0.2023160187777298 0.2499437233468031 0  0.209607316715678 0.2490657746470806 0  0.2166913542940605 0.2471292595277729 0  0.2234153031904863 0.2441759640668765 0  0.2296341035348034 0.2402696057534384 0  0.2352135924166989 0.2354944765942986 0  0.2400333990856285 0.2299536067939113 0  0.2439895381864352 0.2237665860138819 0  0.2469966510816372 0.217066990177074 0  0.2564582324683302 0.2099987529917337 0  0.2639265760971788 0.2099983373376111 0  0.2713949253093005 0.2099980676167728 0  0.2788632386355186 0.2099978519821971 0  0.2863315539028256 0.209997668176872 0  0.2937998552739855 0.2099975099076608 0  0.3012681614474523 0.2099973705763538 0  0.3087364626259771 0.2099972426210358 0  0.3162047675782149 0.2099971243455102 0  0.3236730673886811 0.2099970151883843 0  0.331141374532711 0.2099969140836074 0  0.3386096735560686 0.2099968203061069 0  0.3460779810184321 0.2099967287521763 0  0.3535462808075161 0.2099966321495622 0  0.3610145796010214 0.2099965726604122 0  0.3684828836357769 0.209996506958303 0  0.3759511763599007 0.2099964390457412 0  0.3834194775786207 0.2099963736185425 0  0.3908877673261578 0.2099963097405091 0  0.3983560671447999 0.2099962467211556 0  0.405824353782027 0.2099961865673431 0  0.4132926528339376 0.2099961166227126 0  0.4207609354568447 0.2099960341979129 0  0.4282292385901741 0.2099959983962279 0  0.4356975535647456 0.2099959369476682 0  0.4431658625749869 0.2099958972194148 0  0.450634187476354 0.2099958518550187 0  0.4581025032407653 0.2099958235367606 0  0.4655708455095525 0.2099957589950592 0  0.4730391676005798 0.2099957127398291 0  0.4805075090139289 0.2099957256481944 0  0.4879758224265404 0.2099957204682291 0  0.4954441557938529 0.2099956551686137 0  0.502912464946776 0.2099956242424515 0  0.5103807969407732 0.2099956551913925 0  0.5178491060325637 0.2099956303859397 0  0.5253174346041717 0.2099955969882064 0  0.5327857519982667 0.2099955795608704 0  0.5402540923970052 0.2099955699167385 0  0.5477224139128853 0.2099955571682464 0  0.5551907482074541 0.2099955674897228 0  0.5626590656087754 0.2099955528765321 0  0.5701273547880412 0.2099955910065596 0  0.5775956585327272 0.2099956202511423 0  0.5850639499290681 0.2099956208767534 0  0.5925322438883777 0.2099956354170484 0  0.6000005185812726 0.2049956593672976 0  0.6000004807669125 0.1949956698913115 0  0.592532165665501 0.1899956577880351 0  0.5850638697604184 0.1899956271809045 0  0.577595555180676 0.1899955991835781 0  0.5701272519827635 0.1899955725449561 0  0.5626589397091768 0.1899955357877438 0  0.5551906203864095 0.1899955428612371 0  0.5477223139591332 0.1899955361771344 0  0.5402539831789919 0.1899955343022687 0  0.5327856738334826 0.1899955426275785 0  0.5253173432091341 0.1899955577222012 0  0.517849036799865 0.1899955736975396 0  0.5103807186115829 0.1899955863280479 0  0.5029124090513072 0.1899955982898886 0  0.4954440717362689 0.1899956170373915 0  0.4879757628857914 0.1899956413886265 0  0.4805074431482711 0.1899956640614712 0  0.473039131188579 0.1899956867913605 0  0.4655707874357124 0.1899957177024511 0  0.4581024758675813 0.1899957601838942 0  0.4506341524220495 0.1899958087769757 0  0.4431658472243214 0.1899958588479128 0  0.4356975206332124 0.1899959127807863 0  0.4282292150945544 0.1899959681299131 0  0.4207608993285649 0.1899960120910981 0  0.4132925899274623 0.1899960939067842 0  0.4058242903649238 0.1899961676718415 0  0.3983559808385432 0.1899962356023592 0  0.3908876802542855 0.1899963031020864 0  0.3834193705985364 0.1899963701036725 0  0.3759510689032684 0.1899964377111208 0  0.3684827601417385 0.1899965065893955 0  0.3610144595990337 0.1899965734555177 0  0.3535461505832128 0.1899966364969673 0  0.3460778410811474 0.1899967315876434 0  0.3386095386170277 0.1899968245680476 0  0.3311412298465265 0.189996919750583 0  0.3236729295791356 0.1899970204497509 0  0.3162046251945693 0.1899971290663186 0  0.308736326168752 0.1899972457461294 0  0.3012680247380107 0.1899973736216022 0  0.2937997234289096 0.1899975145893426 0  0.2863314145265767 0.1899976712708279 0  0.2788631091341733 0.1899978458180737 0  0.2713947721640376 0.1899980752794977 0  0.2639264464948045 0.1899983774166626 0  0.2564581176828219 0.1899987615066616
[...]
<PointData  Vectors="f_30-0"> 
<DataArray  type="Float64"  Name="f_30-0"  NumberOfComponents="3" format="ascii">0.0000000000000000e+00 0.0000000000000000e+00 0.0000000000000000e+00  0.0000000000000000e+00 0.0000000000000000e+00 0.0000000000000000e+00  0.0000000000000000e+00 0.0000000000000000e+00 0.0000000000000000e+00  0.0000000000000000e+00 0.0000000000000000e+00 0.0000000000000000e+00  7.8239908615733753e-02 -1.5820377172267236e-01 0.0000000000000000e+00  1.7804870704812806e-01 -1.3978561814359156e-01 0.0000000000000000e+00  0.0000000000000000e+00 0.0000000000000000e+00 0.0000000000000000e+00  0.0000000000000000e+00 0.0000000000000000e+00 0.0000000000000000e+00  0.0000000000000000e+00 0.0000000000000000e+00 0.0000000000000000e+00  0.0000000000000000e+00 0.0000000000000000e+00 0.0000000000000000e+00  3.0167290228312876e-01 -3.1168854534923801e-01 0.0000000000000000e+00  0.0000000000000000e+00 0.0000000000000000e+00 0.0000000000000000e+00  0.0000000000000000e+00 0.0000000000000000e+00 0.0000000000000000e+00  0.0000000000000000e+00 0.0000000000000000e+00 0.0000000000000000e+00  0.0000000000000000e+00 0.0000000000000000e+00 0.0000000000000000e+00  0.0000000000000000e+00 0.0000000000000000e+00 0.0000000000000000e+00  0.0000000000000000e+00 0.0000000000000000e+00 0.0000000000000000e+00  0.0000000000000000e+00 0.0000000000000000e+00 0.0000000000000000e+00  0.0000000000000000e+00 0.0000000000000000e+00 0.0000000000000000e+00  0.0000000000000000e+00 0.0000000000000000e+00 0.0000000000000000e+00  0.0000000000000000e+00 0.0000000000000000e+00 0.0000000000000000e+00  0.0000000000000000e+00 0.0000000000000000e+00 0.0000000000000000e+00  0.0000000000000000e+00 0.0000000000000000e+00 0.0000000000000000e+00  0.0000000000000000e+00 0.0000000000000000e+00 0.0000000000000000e+00  0.0000000000000000e+00 0.0000000000000000e+00 0.0000000000000000e+00  0.0000000000000000e+00 0.0000000000000000e+00 0.0000000000000000e+00  0.0000000000000000e+00 0.0000000000000000e+00 0.0000000000000000e+00  0.0000000000000000e+00 0.0000000000000000e+00 0.0000000000000000e+00  0.0000000000000000e+00 0.0000000000000000e+00 0.0000000000000000e+00  0.0000000000000000e+00 0.0000000000000000e+00 0.0000000000000000e+00  0.0000000000000000e+00 0.0000000000000000e+00 0.0000000000000000e+00  0.0000000000000000e+00 0.0000000000000000e+00 0.0000000000000000e+00  0.0000000000000000e+00 0.0000000000000000e+00 0.0000000000000000e+00  0.0000000000000000e+00 0.0000000000000000e+00 0.0000000000000000e+00  0.0000000000000000e+00 0.0000000000000000e+00 0.0000000000000000e+00  0.0000000000000000e+00 0.0000000000000000e+00 0.0000000000000000e+00  0.0000000000000000e+00 0.0000000000000000e+00 0.0000000000000000e+00  0.0000000000000000e+00 0.0000000000000000e+00 0.0000000000000000e+00  0.0000000000000000e+00 0.0000000000000000e+00 0.0000000000000000e+00  0.0000000000000000e+00 0.0000000000000000e+00 0.0000000000000000e+00  0.0000000000000000e+00 0.0000000000000000e+00 0.0000000000000000e+00  0.0000000000000000e+00 0.0000000000000000e+00 0.0000000000000000e+00  0.0000000000000000e+00 0.0000000000000000e+00 0.0000000000000000e+00  0.0000000000000000e+00 0.0000000000000000e+00 0.0000000000000000e+00  0.0000000000000000e+00 0.0000000000000000e+00 0.0000000000000000e+00  0.0000000000000000e+00 0.0000000000000000e+00 0.0000000000000000e+00  0.0000000000000000e+00 0.0000000000000000e+00 0.0000000000000000e+00  0.0000000000000000e+00 0.0000000000000000e+00 0.0000000000000000e+00  0.0000000000000000e+00 0.0000000000000000e+00 0.0000000000000000e+00  0.0000000000000000e+00 0.0000000000000000e+00 0.0000000000000000e+00  0.0000000000000000e+00 0.0000000000000000e+00 0.0000000000000000e+00  0.0000000000000000e+00 0.0000000000000000e+00 0.0000000000000000e+00  0.0000000000000000e+00 0.0000000000000000e+00 0.0000000000000000e+00  0.0000000000000000e+00 0.0000000000000000e+00 0.0000000000000000e+00  0.0000000000000000e+00 0.0000000000000000e+00 0.0000000000000000e+00  0.0000000000000000e+00 0.0000000000000000e+00 0.0000000000000000e+00  0.0000000000000000e+00 0.0000000000000000e+00 0.0000000000000000e+00  0.0000000000000000e+00 0.0000000000000000e+00 0.0000000000000000e+00  0.0000000000000000e+00 0.0000000000000000e+00 0.0000000000000000e+00  0.0000000000000000e+00 0.0000000000000000e+00 0.0000000000000000e+00  0.0000000000000000e+00 0.0000000000000000e+00 0.0000000000000000e+00  0.0000000000000000e+00 0.0000000000000000e+00 0.0000000000000000e+00  1.1157898931582536e-08 3.9653791125480796e-09 0.0000000000000000e+00  -2.2953350509325870e-10 5.8513884787345872e-09 0.0000000000000000e+00  -1.1478223433514454e-08 4.4726625517206909e-09 0.0000000000000000e+00  0.0000000000000000e+00 0.0000000000000000e+00 0.0000000000000000e+00  0.0000000000000000e+00 0.0000000000000000e+00 0.0000000000000000e+00  0.0000000000000000e+00 0.0000000000000000e+00 0.0000000000000000e+00  0.0000000000000000e+00 0.0000000000000000e+00 0.0000000000000000e+00  0.0000000000000000e+00 0.0000000000000000e+00 0.0000000000000000e+00  0.0000000000000000e+00 0.0000000000000000e+00 0.0000000000000000e+00  0.0000000000000000e+00 0.0000000000000000e+00 0.0000000000000000e+00  0.0000000000000000e+00 0.0000000000000000e+00 0.0000000000000000e+00  0.0000000000000000e+00 0.0000000000000000e+00 0.0000000000000000e+00  0.0000000000000000e+00 0.0000000000000000e+00 0.0000000000000000e+00  0.0000000000000000e+00 0.0000000000000000e+00 0.0000000000000000e+00  0.0000000000000000e+00 0.0000000000000000e+00 0.0000000000000000e+00  0.0000000000000000e+00 0.0000000000000000e+00 0.0000000000000000e+00  0.0000000000000000e+00 0.0000000000000000e+00 0.0000000000000000e+00  0.0000000000000000e+00 0.0000000000000000e+00 0.0000000000000000e+00  0.0000000000000000e+00 0.0000000000000000e+00 0.0000000000000000e+00  0.0000000000000000e+00 0.0000000000000000e+00 0.0000000000000000e+00  0.0000000000000000e+00 0.0000000000000000e+00 0.0000000000000000e+00  0.0000000000000000e+00 0.0000000000000000e+00 0.0000000000000000e+00  0.0000000000000000e+00 0.0000000000000000e+00 0.0000000000000000e+00  0.0000000000000000e+00 0.0000000000000000e+00 0.0000000000000000e+00  0.0000000000000000e+00 0.0000000000000000e+00 0.0000000000000000e+00  0.0000000000000000e+00 0.0000000000000000e+00 0.0000000000000000e+00  0.0000000000000000e+00 0.0000000000000000e+00 0.0000000000000000e+00  0.0000000000000000e+00 0.0000000000000000e+00 0.0000000000000000e+00  0.0000000000000000e+00 0.0000000000000000e+00 0.0000000000000000e+00  0.0000000000000000e+00 0.0000000000000000e+00 0.0000000000000000e+00  0.0000000000000000e+00 0.0000000000000000e+00 0.0000000000000000e+00  0.0000000000000000e+00 0.0000000000000000e+00 0.0000000000000000e+00  0.0000000000000000e+00 0.0000000000000000e+00 0.0000000000000000e+00  0.0000000000000000e+00 0.0000000000000000e+00 0.0000000000000000e+00  0.0000000000000000e+00 0.0000000000000000e+00 0.0000000000000000e+00  0.0000000000000000e+00 0.0000000000000000e+00 0.0000000000000000e+00  0.0000000000000000e+00 0.0000000000000000e+00 0.0000000000000000e+00  0.0000000000000000e+00 0.0000000000000000e+00 0.0000000000000000e+00  0.0000000000000000e+00 0.0000000000000000e+00 0.0000000000000000e+00  0.0000000000000000e+00 0.0000000000000000e+00 0.0000000000000000e+00  0.0000000000000000e+00 0.0000000000000000e+00 0.0000000000000000e+00  0.0000000000000000e+00 0.0000000000000000e+00 0.0000000000000000e+00  0.0000000000000000e+00 0.0000000000000000e+00 0.0000000000000000e+00  0.0000000000000000e+00 0.0000000000000000e+00 0.0000000000000000e+00  0.0000000000000000e+00 0.0000000000000000e+00 0.0000000000000000e+00  0.0000000000000000e+00 0.0000000000000000e+00 0.0000000000000000e+00  0.0000000000000000e+00 0.0000000000000000e+00 0.0000000000000000e+00  0.0000000000000000e+00 0.0000000000000000e+00 0.0000000000000000e+00  0.0000000000000000e+00 0.0000000000000000e+00 0.0000000000000000e+00  0.0000000000000000e+00 0.0000000000000000e+00 0.0000000000000000e+00  0.0000000000000000e+00 0.0000000000000000e+00 0.0000000000000000e+00  0.0000000000000000e+00 0.0000000000000000e+00 0.0000000000000000e+00  0.0000000000000000e+00 0.0000000000000000e+00 0.0000000000000000e+00  0.0000000000000000e+00 0.0000000000000000e+00 0.0000000000000000e+00  0.0000000000000000e+00 0.0000000000000000e+00 0.0000000000000000e+00  0.0000000000000000e+00 0.0000000000000000e+00 0.0000000000000000e+00  0.0000000000000000e+00 0.0000000000000000e+00 0.0000000000000000e+00  0.0000000000000000e+00 0.0000000000000000e+00 0.0000000000000000e+00  0.0000000000000000e+00 0.0000000000000000e+00 0.0000000000000000e+00  0.0000000000000000e+00 0.0000000000000000e+00 0.0000000000000000e+00  0.0000000000000000e+00 0.0000000000000000e+00 0.0000000000000000e+00  0.0000000000000000e+00 0.0000000000000000e+00 0.0000000000000000e+00  0.0000000000000000e+00 0.0000000000000000e+00 0.0000000000000000e+00  0.0000000000000000e+00 0.0000000000000000e+00 0.0000000000000000e+00  0.0000000000000000e+00 0.0000000000000000e+00 0.0000000000000000e+00  0.0000000000000000e+00 0.0000000000000000e+00 0.0000000000000000e+00  0.0000000000000000e+00 0.0000000000000000e+00 0.0000000000000000e+00  0.0000000000000000e+00 0.0000000000000000e+00 0.0000000000000000e+00  0.0000000000000000e+00 0.0000000000000000e+00 0.0000000000000000e+00  0.0000000000000000e+00 0.0000000000000000e+00 0.0000000000000000e+00  0.0000000000000000e+00 0.0000000000000000e+00 0.0000000000000000e+00  0.0000000000000000e+00 0.0000000000000000e+00 0.0000000000000000e+00  0.0000000000000000e+00 0.0000000000000000e+00 0.0000000000000000e+00  0.0000000000000000e+00 0.0000000000000000e+00 0.0000000000000000e+00  0.0000000000000000e+00 0.0000000000000000e+00 0.0000000000000000e+00  0.0000000000000000e+00 0.0000000000000000e+00 0.0000000000000000e+00  0.0000000000000000e+00 0.0000000000000000e+00 0.0000000000000000e+00  0.0000000000000000e+00 0.0000000000000000e+00 0.0000000000000000e+00  0.0000000000000000e+00 0.0000000000000000e+00 0.0000000000000000e+00  0.0000000000000000e+00 0.0000000000000000e+00 0.0000000000000000e+00  0.0000000000000000e+00 0.0000000000000000e+00 0.0000000000000000e+00  7.2827041713073637e-02 8.5992265367943166e-01 0.0000000000000000e+00  4.0832257251509053e-02 8.2253785460297746e-01 0.0000000000000000e+00  3.0889756318640749e-01 6.6666641019024409e-01 0.0000000000000000e+00  1.4610794306675878e-01 4.1548762387745364e-01 0.0000000000000000e+00  1.8876372201720948e-01 2.6224623018327031e-01 0.0000000000000000e+00  7.7993462005084793e-02 1.2601573914684622e-01 0.0000000000000000e+00  9.6837623736505840e-02 3.3081237786247983e-02 0.0000000000000000e+00  3.1299428166188102e-02 -7.1526712143704804e-02 0.0000000000000000e+00  5.5676740596787684e-02 -1.5498997523486874e-01 0.0000000000000000e+00  -1.8677707847946723e-03 -1.9766292371983812e-01 0.0000000000000000e+00  4.6755445805293339e-02 -2.7181283169226772e-01 0.0000000000000000e+00  -1.4982307491381693e-02 -2.7776850809471787e-01 0.0000000000000000e+00  6.5689524886532388e-02 -3.4657531932791369e-01 0.0000000000000000e+00  1.8635011099831591e-02 -3.8258267911232341e-01 0.0000000000000000e+00  4.2158610702431832e-03 -3.5289125694574613e-01 0.0000000000000000e+00  3.7138830143644622e-02 -3.1957772306454396e-01 0.0000000000000000e+00  -1.6787813894157618e-02 -3.5138530627574938e-01 0.0000000000000000e+00  1.6710650028688993e-02 -3.5179718750893391e-01 0.0000000000000000e+00  -5.4247504856207919e-02 -3.5674339406312289e-01 0.0000000000000000e+00  -1.2562209011221619e-02 -4.1568499759380395e-01 0.0000000000000000e+00  -1.3565042341774625e-01 -3.5806889405101472e-01 0.0000000000000000e+00  -3.2551845111096440e-02 -4.8259699356430696e-01 0.0000000000000000e+00  -1.9407259890865475e-01 -5.2467189517062307e-01 0.0000000000000000e+00  -2.2117064718513116e-01 -4.8406769607886452e-01 0.0000000000000000e+00  -2.1266176470535381e-01 -9.3721712149995640e-01 0.0000000000000000e+00  -1.9991040805741586e-01 -7.0582521955845556e-01 0.0000000000000000e+00  -1.9367524549262113e-01 -8.6463846781713327e-01 0.0000000000000000e+00  -2.8002814861883740e-01 -4.7875095373810783e-01 0.0000000000000000e+00  1.3920557280524729e-01 -1.0227295290821594e+00 0.0000000000000000e+00  -1.9003298493404397e-01 -1.3670536941078175e+00 0.0000000000000000e+00  9.8414241466502808e-02 -5.9619577604738383e-01 0.0000000000000000e+00  -7.2490492425409073e-02 -2.3190477037307505e-01 0.0000000000000000e+00  3.1736641120894532e-01 -9.0908413993832171e-01 0.0000000000000000e+00  -1.9405615389175937e-01 -1.1743106465493740e+00 0.0000000000000000e+00  1.5014276130515816e-01 -2.8398726338677860e-01 0.0000000000000000e+00  2.1584843338998817e-03 -5.1868921332367435e-01 0.0000000000000000e+00  9.0092148287421986e-02 -7.9506440113356625e-01 0.0000000000000000e+00  -6.9338781346527045e-02 -8.5170747304721939e-01 0.0000000000000000e+00  2.4990157238556787e-01 -8.3298127349872331e-01 0.0000000000000000e+00  1.5479517717032917e-01 -9.9247953022691748e-01 0.0000000000000000e+00  3.0532985745599062e-01 -5.6733137189492200e-01 0.0000000000000000e+00  2.7176299941680526e-01 -5.7855137085527009e-01 0.0000000000000000e+00  1.7217409604715572e-01 -5.2142988344190710e-01 0.0000000000000000e+00  2.6780604244518774e-01 -2.7617482834661106e-01 0.0000000000000000e+00  2.5907846831963516e-01 -6.1500644839820306e-01 0.0000000000000000e+00  4.6136804592034963e-01 -7.8223318061879377e-01 0.0000000000000000e+00  4.5126174997982821e-01 -4.5108403684913101e-01 0.0000000000000000e+00  1.0193393965672810e-01 -2.4945842490552117e-01 0.0000000000000000e+00  1.2893722932804472e-01 -2.8564881869479825e-01 0.0000000000000000e+00  2.3469610362331297e-01 -3.7719770371159927e-01 0.0000000000000000e+00  8.9312589757595831e-02 -4.2449741736367486e-01 0.0000000000000000e+00  1.9865493148564947e-01 -5.2427071676971315e-01 0.0000000000000000e+00  1.1380077378045908e-01 -5.2174762340922420e-01 0.0000000000000000e+00  6.4715196358173036e-02 -6.0556469392299128e-01 0.0000000000000000e+00  2.2571668108447271e-01 -6.7509361604640106e-01 0.0000000000000000e+00  -2.7628861308869459e-02 -7.0714859967207244e-01 0.0000000000000000e+00  1.1368253759504530e-01 -6.9589467287141293e-01 0.0000000000000000e+00  -1.1294112278624567e-01 -6.5516789972263412e-01 0.0000000000000000e+00  9.4923682430149092e-02 -5.8736236304444867e-01 0.0000000000000000e+00  2.7656765161749985e-02 -5.9861881901867586e-01 0.0000000000000000e+00  1.7112570880968997e-01 -6.8640127163932474e-01 0.0000000000000000e+00  -1.3762340851498694e-01 -6.7931346964454187e-01 0.0000000000000000e+00  6.0986265913602233e-02 -6.2214667480769470e-01 0.0000000000000000e+00  6.4474095716816407e-03 -6.7579230682425973e-01 0.0000000000000000e+00  1.7111225835387461e-01 -8.0514836714001325e-01 0.0000000000000000e+00  -2.0243025573353401e-01 -8.0222549010654176e-01 0.0000000000000000e+00  -3.3721445417632064e-02 -7.0635505456163028e-01 0.0000000000000000e+00  -1.6216519237551616e-01 -6.7140636727917924e-01 0.0000000000000000e+00  1.9291924194315382e-02 -6.6273482296866970e-01 0.0000000000000000e+00  -1.9508168890324246e-01 -6.2896724954893046e-01 0.0000000000000000e+00  -5.2160800006071789e-02 -5.6525302975010916e-01 0.0000000000000000e+00  -9.6689630247011521e-02 -5.0497035281122549e-01 0.0000000000000000e+00  -1.4718766685304466e-01 -4.9405956993553851e-01 0.0000000000000000e+00  -5.5912414118273059e-02 -4.1202993627994833e-01 0.0000000000000000e+00  -1.1427836870539693e-01 -3.9959152288665245e-01 0.0000000000000000e+00  -2.7946310478079366e-02 -3.8034259671935727e-01 0.0000000000000000e+00  -9.2743367001570112e-02 -3.7115630470581995e-01 0.0000000000000000e+00  -2.4739852512471006e-02 -3.5740198349115054e-01 0.0000000000000000e+00  -7.8491408823378642e-02 -3.4198271439077849e-01 0.0000000000000000e+00  -1.1931999912077988e-02 -3.4729166243917969e-01 0.0000000000000000e+00  -3.4018722391640534e-02 -3.3928489547205842e-01 0.0000000000000000e+00  -1.0854822210073073e-01 -3.4389053922579771e-01 0.0000000000000000e+00  -3.0093311246440720e-02 -2.9018754802562646e-01 0.0000000000000000e+00  -1.0990205940003628e-01 -2.6412470122071757e-01 0.0000000000000000e+00  -4.1261654750112155e-02 -2.1130003016470134e-01 0.0000000000000000e+00  -8.3849697111241350e-02 -1.6506806915332761e-01 0.0000000000000000e+00  -3.1893648119505034e-02 -8.8149769530769181e-02 0.0000000000000000e+00  -5.7099307660030713e-02 -8.3352019300790244e-04 0.0000000000000000e+00  2.0904070907556874e-02 1.2791591297583857e-01 0.0000000000000000e+00  1.0830915217766700e-02 2.5815188104459935e-01 0.0000000000000000e+00  1.5330059275966029e-01 2.3171226290598829e-01 0.0000000000000000e+00  -1.3372809553695811e-01 6.8470486841535383e-01 0.0000000000000000e+00  -3.3237744535382807e-01 1.4339121931505983e+00 0.0000000000000000e+00  -2.3689530200176745e-01 8.2813745721130394e-01 0.0000000000000000e+00  5.4626053578572462e-03 -6.1414733911361186e-01 0.0000000000000000e+00  -5.6754548554467880e-03 3.1553970268094156e-01 0.0000000000000000e+00  5.1601334492611820e-03 3.4899668980403237e-01 0.0000000000000000e+00  -8.9270867255129439e-03 5.7654163934826608e-01 0.0000000000000000e+00  -1.3756068129651852e-01 -4.3492710353475439e-01 0.0000000000000000e+00  3.6091242487747428e-02 5.9611870046353854e-01 0.0000000000000000e+00  3.6235991156822508e-02 -1.8861391467073024e-01 0.0000000000000000e+00  1.2499976571921968e-01 5.2499129391301935e-01 0.0000000000000000e+00  4.8090534047248515e-03 9.5936520006873027e-02 0.0000000000000000e+00  2.5921346851632226e-04 1.8559459627778180e-01 0.0000000000000000e+00  -2.2103299897540638e-01 5.5582399410654337e-01 0.0000000000000000e+00  3.1070993238282735e-03 2.7729988175733655e-01 0.0000000000000000e+00  -2.4537820445753844e-01 6.6439036245783656e-01 0.0000000000000000e+00  -3.0578943367085745e-03 2.3058652317779410e-01 0.0000000000000000e+00  -5.8502456881505023e-03 2.8613291868849150e-01 0.0000000000000000e+00  1.4891962845750845e-01 6.0690168278553069e-01 0.0000000000000000e+00  2.4747161997665240e-01 5.1514833167170193e-01 0.0000000000000000e+00  -2.4630879382469648e-02 3.1141080206615140e-01 0.0000000000000000e+00  -9.9442766476252234e-02 5.7668145554093631e-01 0.0000000000000000e+00  -4.1373967364333872e-05 3.4280947006022616e-01 0.0000000000000000e+00  4.3378111104947605e-03 5.1308973524627266e-01 0.0000000000000000e+00  1.7277667329841491e-02 3.3005086222462637e-01 0.0000000000000000e+00  7.4810682313128580e-04 2.2459760228660428e-01 0.0000000000000000e+00  -1.9111028301826753e-02 3.6464569764269611e-01 0.0000000000000000e+00  -6.3567416355442394e-04 -1.9887444941241819e-03 0.0000000000000000e+00  -1.6604587230541906e-02 2.4992228681519549e-01 0.0000000000000000e+00  -1.7617307553296302e-01 -6.0740436527070552e-01 0.0000000000000000e+00  2.3587783437932549e-02 4.0872181399773166e-01 0.0000000000000000e+00  -4.4569145712453635e-02 4.6728006911616327e-01 0.0000000000000000e+00  2.5362554228994137e-03 -1.9938292692052567e-01 0.0000000000000000e+00  2.5343335371345914e-02 1.0966412385625281e-01 0.0000000000000000e+00  -9.1308990401481882e-03 3.1586624254874296e-01 0.0000000000000000e+00  -3.8719782231371049e-02 2.8874083960385621e-01 0.0000000000000000e+00  -5.7415973827107452e-03 2.0130860817857882e-01 0.0000000000000000e+00  -1.5796999327660987e-03 5.6140179434571469e-01 0.0000000000000000e+00  2.3167460018958790e-02 1.5013791340784188e-01 0.0000000000000000e+00  1.1725014505180310e-02 2.1386138770667779e-01 0.0000000000000000e+00  4.2704494394740569e-02 3.9840966699587749e-01 0.0000000000000000e+00  8.5195246347619380e-03 5.0732119117536234e-01 0.0000000000000000e+00  4.0752771374665139e-02 2.5370975343085544e-01 0.0000000000000000e+00  5.7094889328967906e-03 3.8729139767720111e-01 0.0000000000000000e+00  -3.2381757110995266e-02 -5.0557130634062764e-01 0.0000000000000000e+00  3.1604730805909909e-01 -3.8670452780888204e-01 0.0000000000000000e+00  -2.3024603763514423e-01 2.7420339528811360e-01 0.0000000000000000e+00  1.1914836371900101e-03 -5.7828409789624124e-01 0.000000000