<?xml version="1.0"?>
<VTKFile type="UnstructuredGrid"  version="0.1"  >
<UnstructuredGrid>
<Piece  NumberOfPoints="1419" NumberOfCells="2698">
<Points>
<DataArray  type="Float64"  NumberOfComponents="3"  format="ascii">1.065331865909252e-10 -8.616428265453429e-07 0  1.021774975063013e-08 0.4099991347147183 0  2.500000013547758 -1.259948288780439e-06 0  2.500000013547765 0.4099987400517223 0  0.6000000140204399 0.189998696396665 0  0.6000000203907421 0.2099986982662298 0  0.25 0.2 0  0.1500000049544249 0.1999991442556363 0  0.2489897948556636 0.21 0  0.2489897948556636 0.19 0  0.6000000184602069 0.1999986915851134 0  1.010460514829467e-08 0.3807134206773976 0  9.782080607694817e-09 0.3514277070672591 0  9.23905792765895e-09 0.3221419937839393 0  8.474124643635144e-09 0.2928562806107738 0  7.525197844880168e-09 0.2635705673810871 0  6.428250701606847e-09 0.2342848539832787 0  5.22666115486974e-09 0.2049991402498899 0  4.018962359723137e-09 0.1757134262093108 0  2.892347189729231e-09 0.146427711830397 0  1.90297485308912e-09 0.1171419971763832 0  1.128373920979734e-09 0.08785628234950214 0  5.555626584690091e-10 0.05857056749916652 0  2.150359792727153e-10 0.02928485279033072 0  0.03015443759550444 -8.618087752300141e-07 0  0.06140001948242383 -8.62409964125893e-07 0  0.09377623973069379 -8.637730377311653e-07 0  0.1273239937770628 -8.664682768019108e-07 0  0.1620856828903011 -8.715196477225688e-07 0  0.1981052388847542 -8.814373004013624e-07 0  0.2354281784634251 -8.999678061534541e-07 0  0.2741016512185427 -9.295058918331964e-07 0  0.3141745455598829 -9.70372044277566e-07 0  0.3556974868076668 -1.020960105495059e-06 0  0.3987229500386724 -1.075341856247106e-06 0  0.4433053036816836 -1.127429024427437e-06 0  0.4895008769664174 -1.173175918957957e-06 0  0.5373680649701758 -1.208835657945129e-06 0  0.5869673410847003 -1.233011311897977e-06 0  0.6383613766703379 -1.247856199366111e-06 0  0.6916151244587765 -1.255206730157228e-06 0  0.7467958712448408 -1.258429147241727e-06 0  0.8039733587751847 -1.259729195018167e-06 0  0.8632198267785451 -1.260150316577712e-06 0  0.9246101457970632 -1.26021407092815e-06 0  0.9882218943726988 -1.260161623628803e-06 0  1.054135458947398 -1.26009801511215e-06 0  1.12243411399508 -1.260045000687867e-06 0  1.193204190634448 -1.260006544038925e-06 0  1.266535103396673 -1.259981991407711e-06 0  1.342519529576929 -1.259967531770408e-06 0  1.42125346204222 -1.259958963616159e-06 0  1.502836402649043 -1.259953934206706e-06 0  1.58737145330401 -1.25995122464104e-06 0  1.67496543232381 -1.259949790155817e-06 0  1.765729015372652 -1.259949026568624e-06 0  1.85977692242752 -1.259948651144409e-06 0  1.957227991034673 -1.259948454277056e-06 0  2.058205343417632 -1.259948364650503e-06 0  2.16283660473768 -1.259948318908924e-06 0  2.271253970838611 -1.259948299526034e-06 0  2.383594460351178 -1.259948291230793e-06 0  2.500000013547758 0.102498740051474 0  2.50000001354776 0.2049987400511909 0  2.500000013547765 0.3074987400514389 0  2.383594460351423 0.4099987400517246 0  2.271253970839089 0.409998740051733 0  2.162836604738391 0.4099987400517533 0  2.058205343418607 0.4099987400517969 0  1.957227991035976 0.4099987400518857 0  1.859776922429337 0.4099987400520922 0  1.765729015375272 0.4099987400524664 0  1.674965432327932 0.4099987400532618 0  1.587371453310781 0.4099987400547007 0  1.502836402660713 0.4099987400574418 0  1.421253462063057 0.4099987400627414 0  1.342519529613283 0.4099987400717474 0  1.266535103459634 0.4099987400875018 0  1.193204190745041 0.4099987401171889 0  1.122434114186047 0.4099987401704719 0  1.054135459262871 0.4099987402596544 0  0.9882218948991145 0.4099987404365359 0  0.924610146646802 0.4099987407617754 0  0.8632198281379017 0.4099987413853111 0  0.803973360903684 0.409998742633499 0  0.7467958745152138 0.4099987451381023 0  0.6916151293323594 0.4099987500144682 0  0.6383613837327011 0.4099987594833681 0  0.5869673509564287 0.4099987756832476 0  0.5373680781105227 0.409998800576957 0  0.4895008936453168 0.4099988357432323 0  0.4433053237700273 0.4099988792773799 0  0.3987229728903253 0.4099989282268667 0  0.3556975113163815 0.409998978702189 0  0.3141745703940404 0.4099990257555997 0  0.2741016749744919 0.4099990648145964 0  0.2354282001867429 0.4099990928959002 0  0.1981052580393101 0.4099991113620468 0  0.1620856994123598 0.4099991221995638 0  0.1273240079705862 0.4099991282443595 0  0.09377625208291421 0.4099991317271604 0  0.06140003055542732 0.4099991335382944 0  0.03015444792437582 0.4099991344795573 0  0.2497468076502589 0.2050254481002335 0  0.2497468076502614 0.1949745518997913 0  0.2469965143708492 0.1829312836368125 0  0.2439893614374969 0.1762310652951503 0  0.2400332029864806 0.170043677467953 0  0.2352133863583694 0.1645025721278187 0  0.22963389176363 0.1597272729302304 0  0.2234150886434817 0.1558207943843711 0  0.2166911386538063 0.1528674090870626 0  0.2096071012809904 0.1509308296150293 0  0.2023158044556018 0.150052832253606 0  0.1949745473305494 0.1502523581426355 0  0.1877417069770405 0.1515251013891057 0  0.1807733214564759 0.1538436040150449 0  0.174219723669372 0.1571578469642899 0  0.168222297998165 0.1613963300287701 0  0.1629104302906038 0.1664676136644151 0  0.1583987163969134 0.1722622921579283 0  0.1547844900752257 0.1786553535023863 0  0.1521457230214115 0.1855088765888336 0  0.1505393428780567 0.1926750064712701 0  0.1505393447320278 0.2073232822349007 0  0.1521457267473515 0.214489412728053 0  0.1547844956346049 0.2213429368729555 0  0.1583987238201642 0.2277359998562055 0  0.1629104395506805 0.2335306806751006 0  0.1682223091339614 0.238601967665714 0  0.1742197366451917 0.2428404552430837 0  0.1807733363066911 0.2461547044540993 0  0.1877417237037724 0.2484732156883347 0  0.1949745659482007 0.2497459708008547 0  0.2023158249459801 0.2499455123799762 0  0.2096071236882651 0.2490675369324332 0  0.2166911629234465 0.247130986325601 0  0.2234151147708587 0.2441776414115463 0  0.2296339196444563 0.2402712177470398 0  0.2352134157609324 0.2354959963890596 0  0.2400332334005553 0.229955000368052 0  0.2439893914597046 0.2237677861052138 0  0.2469965401762587 0.2170678672226349 0  0.2564581174147533 0.209999584179685 0  0.2639264244211323 0.2099994422902721 0  0.2713947298618553 0.2099993497297249 0  0.2788630323111434 0.2099992790185251 0  0.2863313347408691 0.2099992212078924 0  0.2937996382617811 0.2099991706299763 0  0.3012679403472486 0.2099991243695745 0  0.3087362414020383 0.2099990928884517 0  0.3162045460165941 0.209999062490853 0  0.3236728463677225 0.2099990342068232 0  0.3311411508859662 0.2099990088715174 0  0.3386094506653266 0.2099989855847881 0  0.3460777542084438 0.209998963297376 0  0.3535460544252466 0.2099989389755771 0  0.361014354800315 0.2099989268251694 0  0.3684826577986416 0.2099989123807718 0  0.3759509574680411 0.2099988972853609 0  0.3834192604821912 0.209998883048663 0  0.3908875601686504 0.2099988692765717 0  0.3983558632584036 0.2099988563084565 0  0.4058241628008948 0.2099988432134217 0  0.4132924655755572 0.2099988294337463 0  0.4207607652887712 0.2099988127904839 0  0.4282290657796701 0.2099988057255948 0  0.4356973685071254 0.2099987962517579 0  0.4431656688074124 0.2099987857397326 0  0.4506339717693986 0.2099987751271669 0  0.4581022719607928 0.2099987647673404 0  0.4655705751960906 0.2099987546421945 0  0.473038875226058 0.2099987447929824 0  0.4805071787748637 0.2099987351376375 0  0.4879754789868967 0.2099987257646275 0  0.495443782961052 0.2099987165628826 0  0.5029120829509958 0.2099987083887572 0  0.5103803871669748 0.2099987009440969 0  0.5178486876119432 0.209998694258939 0  0.5253169931753103 0.2099986876090794 0  0.5327852936035988 0.209998681404134 0  0.5402535991125345 0.209998676295105 0  0.5477218998985447 0.2099986726253233 0  0.5551902061300147 0.2099986674028915 0  0.5626585078596489 0.2099986588494679 0  0.5701268092726499 0.2099986696630249 0  0.5775951157012563 0.2099986766769773 0  0.5850634166877802 0.2099986817315137 0  0.5925317205272136 0.2099986899444024 0  0.6000000212961193 0.2049986939417881 0  0.6000000146883546 0.194998694180195 0  0.5925317111404613 0.1899986865706955 0  0.5850634110909658 0.1899986767997364 0  0.5775951061506424 0.1899986692667183 0  0.5701268059818893 0.1899986621416147 0  0.5626585016454962 0.1899986517598539 0  0.5551901964159447 0.1899986587671016 0  0.5477218960476633 0.189998661709729 0  0.5402535898490447 0.1899986647270789 0  0.5327852896528927 0.1899986688939578 0  0.5253169830710963 0.1899986742321915 0  0.5178486818750574 0.1899986805638057 0  0.5103803756632496 0.1899986876900377 0  0.5029120750236523 0.1899986954806551 0  0.4954437691806534 0.1899987040225095 0  0.4879754683873008 0.1899987131907124 0  0.4805071626908827 0.1899987229166193 0  0.4730388612320628 0.1899987330314391 0  0.4655705557955653 0.1899987436105143 0  0.4581022547660205 0.1899987544964681 0  0.4506339498224864 0.1899987656592291 0  0.4431656486731666 0.189998777071907 0  0.4356973436272675 0.1899987886530601 0  0.4282290418337237 0.1899987997299923 0  0.4207607373125336 0.1899988081508481 0  0.4132924333795368 0.1899988257224097 0  0.4058241320393793 0.1899988411286639 0  0.3983558278864618 0.1899988551546067 0  0.3908875262529656 0.1899988694412955 0  0.3834192219678277 0.1899988839723467 0  0.3759509201679679 0.1899988988878165 0  0.3684826159288085 0.1899989143791358 0  0.3610143145586124 0.1899989288367988 0  0.3535460102854655 0.18999894161353 0  0.3460777054170192 0.1899989663272619 0  0.3386094038745355 0.1899989897338813 0  0.3311410989515761 0.1899990133178215 0  0.3236727980263057 0.1899990388169342 0  0.3162044935597951 0.189999066901782 0  0.3087361927827443 0.1899990967466655 0  0.3012678883425101 0.189999127972004 0  0.2937995852672346 0.1899991736308633 0  0.2863312838409051 0.1899992239649831 0  0.2788629816118242 0.1899992815958318 0  0.2713946789496531 0.1899993520647594 0  0.2639263789866763 0.1899994451761898 0  0.2564580800370478 0.18999958656412
[...]
<PointData  Vectors="f_30-0"> 
<DataArray  type="Float64"  Name="f_30-0"  NumberOfComponents="3" format="ascii">0.0000000000000000e+00 0.0000000000000000e+00 0.0000000000000000e+00  0.0000000000000000e+00 0.0000000000000000e+00 0.0000000000000000e+00  0.0000000000000000e+00 0.0000000000000000e+00 0.0000000000000000e+00  0.0000000000000000e+00 0.0000000000000000e+00 0.0000000000000000e+00  7.1946947365109709e-03 -4.1700756465058782e-02 0.0000000000000000e+00  1.1130162602193712e-02 -3.7034218714723233e-02 0.0000000000000000e+00  0.0000000000000000e+00 0.0000000000000000e+00 0.0000000000000000e+00  0.0000000000000000e+00 0.0000000000000000e+00 0.0000000000000000e+00  0.0000000000000000e+00 0.0000000000000000e+00 0.0000000000000000e+00  0.0000000000000000e+00 0.0000000000000000e+00 0.0000000000000000e+00  3.1367224852905384e-02 -1.0431323929270568e-01 0.0000000000000000e+00  0.0000000000000000e+00 0.0000000000000000e+00 0.0000000000000000e+00  0.0000000000000000e+00 0.0000000000000000e+00 0.0000000000000000e+00  0.0000000000000000e+00 0.0000000000000000e+00 0.0000000000000000e+00  0.0000000000000000e+00 0.0000000000000000e+00 0.0000000000000000e+00  0.0000000000000000e+00 0.0000000000000000e+00 0.0000000000000000e+00  0.0000000000000000e+00 0.0000000000000000e+00 0.0000000000000000e+00  0.0000000000000000e+00 0.0000000000000000e+00 0.0000000000000000e+00  0.0000000000000000e+00 0.0000000000000000e+00 0.0000000000000000e+00  0.0000000000000000e+00 0.0000000000000000e+00 0.0000000000000000e+00  0.0000000000000000e+00 0.0000000000000000e+00 0.0000000000000000e+00  0.0000000000000000e+00 0.0000000000000000e+00 0.0000000000000000e+00  0.0000000000000000e+00 0.0000000000000000e+00 0.0000000000000000e+00  0.0000000000000000e+00 0.0000000000000000e+00 0.0000000000000000e+00  0.0000000000000000e+00 0.0000000000000000e+00 0.0000000000000000e+00  0.0000000000000000e+00 0.0000000000000000e+00 0.0000000000000000e+00  0.0000000000000000e+00 0.0000000000000000e+00 0.0000000000000000e+00  0.0000000000000000e+00 0.0000000000000000e+00 0.0000000000000000e+00  0.0000000000000000e+00 0.0000000000000000e+00 0.0000000000000000e+00  0.0000000000000000e+00 0.0000000000000000e+00 0.0000000000000000e+00  0.0000000000000000e+00 0.0000000000000000e+00 0.0000000000000000e+00  0.0000000000000000e+00 0.0000000000000000e+00 0.0000000000000000e+00  0.0000000000000000e+00 0.0000000000000000e+00 0.0000000000000000e+00  0.0000000000000000e+00 0.0000000000000000e+00 0.0000000000000000e+00  0.0000000000000000e+00 0.0000000000000000e+00 0.0000000000000000e+00  0.0000000000000000e+00 0.0000000000000000e+00 0.0000000000000000e+00  0.0000000000000000e+00 0.0000000000000000e+00 0.0000000000000000e+00  0.0000000000000000e+00 0.0000000000000000e+00 0.0000000000000000e+00  0.0000000000000000e+00 0.0000000000000000e+00 0.0000000000000000e+00  0.0000000000000000e+00 0.0000000000000000e+00 0.0000000000000000e+00  0.0000000000000000e+00 0.0000000000000000e+00 0.0000000000000000e+00  0.0000000000000000e+00 0.0000000000000000e+00 0.0000000000000000e+00  0.0000000000000000e+00 0.0000000000000000e+00 0.0000000000000000e+00  0.0000000000000000e+00 0.0000000000000000e+00 0.0000000000000000e+00  0.0000000000000000e+00 0.0000000000000000e+00 0.0000000000000000e+00  0.0000000000000000e+00 0.0000000000000000e+00 0.0000000000000000e+00  0.0000000000000000e+00 0.0000000000000000e+00 0.0000000000000000e+00  0.0000000000000000e+00 0.0000000000000000e+00 0.0000000000000000e+00  0.0000000000000000e+00 0.0000000000000000e+00 0.0000000000000000e+00  0.0000000000000000e+00 0.0000000000000000e+00 0.0000000000000000e+00  0.0000000000000000e+00 0.0000000000000000e+00 0.0000000000000000e+00  0.0000000000000000e+00 0.0000000000000000e+00 0.0000000000000000e+00  0.0000000000000000e+00 0.0000000000000000e+00 0.0000000000000000e+00  0.0000000000000000e+00 0.0000000000000000e+00 0.0000000000000000e+00  0.0000000000000000e+00 0.0000000000000000e+00 0.0000000000000000e+00  0.0000000000000000e+00 0.0000000000000000e+00 0.0000000000000000e+00  0.0000000000000000e+00 0.0000000000000000e+00 0.0000000000000000e+00  0.0000000000000000e+00 0.0000000000000000e+00 0.0000000000000000e+00  0.0000000000000000e+00 0.0000000000000000e+00 0.0000000000000000e+00  0.0000000000000000e+00 0.0000000000000000e+00 0.0000000000000000e+00  0.0000000000000000e+00 0.0000000000000000e+00 0.0000000000000000e+00  0.0000000000000000e+00 0.0000000000000000e+00 0.0000000000000000e+00  4.4512800309424531e-09 1.5197677882168032e-09 0.0000000000000000e+00  -1.8561526422360967e-10 1.9512642727857565e-09 0.0000000000000000e+00  -4.8258687368284747e-09 1.8284383261676680e-09 0.0000000000000000e+00  0.0000000000000000e+00 0.0000000000000000e+00 0.0000000000000000e+00  0.0000000000000000e+00 0.0000000000000000e+00 0.0000000000000000e+00  0.0000000000000000e+00 0.0000000000000000e+00 0.0000000000000000e+00  0.0000000000000000e+00 0.0000000000000000e+00 0.0000000000000000e+00  0.0000000000000000e+00 0.0000000000000000e+00 0.0000000000000000e+00  0.0000000000000000e+00 0.0000000000000000e+00 0.0000000000000000e+00  0.0000000000000000e+00 0.0000000000000000e+00 0.0000000000000000e+00  0.0000000000000000e+00 0.0000000000000000e+00 0.0000000000000000e+00  0.0000000000000000e+00 0.0000000000000000e+00 0.0000000000000000e+00  0.0000000000000000e+00 0.0000000000000000e+00 0.0000000000000000e+00  0.0000000000000000e+00 0.0000000000000000e+00 0.0000000000000000e+00  0.0000000000000000e+00 0.0000000000000000e+00 0.0000000000000000e+00  0.0000000000000000e+00 0.0000000000000000e+00 0.0000000000000000e+00  0.0000000000000000e+00 0.0000000000000000e+00 0.0000000000000000e+00  0.0000000000000000e+00 0.0000000000000000e+00 0.0000000000000000e+00  0.0000000000000000e+00 0.0000000000000000e+00 0.0000000000000000e+00  0.0000000000000000e+00 0.0000000000000000e+00 0.0000000000000000e+00  0.0000000000000000e+00 0.0000000000000000e+00 0.0000000000000000e+00  0.0000000000000000e+00 0.0000000000000000e+00 0.0000000000000000e+00  0.0000000000000000e+00 0.0000000000000000e+00 0.0000000000000000e+00  0.0000000000000000e+00 0.0000000000000000e+00 0.0000000000000000e+00  0.0000000000000000e+00 0.0000000000000000e+00 0.0000000000000000e+00  0.0000000000000000e+00 0.0000000000000000e+00 0.0000000000000000e+00  0.0000000000000000e+00 0.0000000000000000e+00 0.0000000000000000e+00  0.0000000000000000e+00 0.0000000000000000e+00 0.0000000000000000e+00  0.0000000000000000e+00 0.0000000000000000e+00 0.0000000000000000e+00  0.0000000000000000e+00 0.0000000000000000e+00 0.0000000000000000e+00  0.0000000000000000e+00 0.0000000000000000e+00 0.0000000000000000e+00  0.0000000000000000e+00 0.0000000000000000e+00 0.0000000000000000e+00  0.0000000000000000e+00 0.0000000000000000e+00 0.0000000000000000e+00  0.0000000000000000e+00 0.0000000000000000e+00 0.0000000000000000e+00  0.0000000000000000e+00 0.0000000000000000e+00 0.0000000000000000e+00  0.0000000000000000e+00 0.0000000000000000e+00 0.0000000000000000e+00  0.0000000000000000e+00 0.0000000000000000e+00 0.0000000000000000e+00  0.0000000000000000e+00 0.0000000000000000e+00 0.0000000000000000e+00  0.0000000000000000e+00 0.0000000000000000e+00 0.0000000000000000e+00  0.0000000000000000e+00 0.0000000000000000e+00 0.0000000000000000e+00  0.0000000000000000e+00 0.0000000000000000e+00 0.0000000000000000e+00  0.0000000000000000e+00 0.0000000000000000e+00 0.0000000000000000e+00  0.0000000000000000e+00 0.0000000000000000e+00 0.0000000000000000e+00  0.0000000000000000e+00 0.0000000000000000e+00 0.0000000000000000e+00  0.0000000000000000e+00 0.0000000000000000e+00 0.0000000000000000e+00  0.0000000000000000e+00 0.0000000000000000e+00 0.0000000000000000e+00  0.0000000000000000e+00 0.0000000000000000e+00 0.0000000000000000e+00  0.0000000000000000e+00 0.0000000000000000e+00 0.0000000000000000e+00  0.0000000000000000e+00 0.0000000000000000e+00 0.0000000000000000e+00  0.0000000000000000e+00 0.0000000000000000e+00 0.0000000000000000e+00  0.0000000000000000e+00 0.0000000000000000e+00 0.0000000000000000e+00  0.0000000000000000e+00 0.0000000000000000e+00 0.0000000000000000e+00  0.0000000000000000e+00 0.0000000000000000e+00 0.0000000000000000e+00  0.0000000000000000e+00 0.0000000000000000e+00 0.0000000000000000e+00  0.0000000000000000e+00 0.0000000000000000e+00 0.0000000000000000e+00  0.0000000000000000e+00 0.0000000000000000e+00 0.0000000000000000e+00  0.0000000000000000e+00 0.0000000000000000e+00 0.0000000000000000e+00  0.0000000000000000e+00 0.0000000000000000e+00 0.0000000000000000e+00  0.0000000000000000e+00 0.0000000000000000e+00 0.0000000000000000e+00  0.0000000000000000e+00 0.0000000000000000e+00 0.0000000000000000e+00  0.0000000000000000e+00 0.0000000000000000e+00 0.0000000000000000e+00  0.0000000000000000e+00 0.0000000000000000e+00 0.0000000000000000e+00  0.0000000000000000e+00 0.0000000000000000e+00 0.0000000000000000e+00  0.0000000000000000e+00 0.0000000000000000e+00 0.0000000000000000e+00  0.0000000000000000e+00 0.0000000000000000e+00 0.0000000000000000e+00  0.0000000000000000e+00 0.0000000000000000e+00 0.0000000000000000e+00  0.0000000000000000e+00 0.0000000000000000e+00 0.0000000000000000e+00  0.0000000000000000e+00 0.0000000000000000e+00 0.0000000000000000e+00  0.0000000000000000e+00 0.0000000000000000e+00 0.0000000000000000e+00  0.0000000000000000e+00 0.0000000000000000e+00 0.0000000000000000e+00  0.0000000000000000e+00 0.0000000000000000e+00 0.0000000000000000e+00  0.0000000000000000e+00 0.0000000000000000e+00 0.0000000000000000e+00  0.0000000000000000e+00 0.0000000000000000e+00 0.0000000000000000e+00  0.0000000000000000e+00 0.0000000000000000e+00 0.0000000000000000e+00  0.0000000000000000e+00 0.0000000000000000e+00 0.0000000000000000e+00  0.0000000000000000e+00 0.0000000000000000e+00 0.0000000000000000e+00  0.0000000000000000e+00 0.0000000000000000e+00 0.0000000000000000e+00  0.0000000000000000e+00 0.0000000000000000e+00 0.0000000000000000e+00  0.0000000000000000e+00 0.0000000000000000e+00 0.0000000000000000e+00  0.0000000000000000e+00 0.0000000000000000e+00 0.0000000000000000e+00  0.0000000000000000e+00 0.0000000000000000e+00 0.0000000000000000e+00  7.0409988084668196e-02 1.9521984174541529e-01 0.0000000000000000e+00  5.5489248889070392e-02 1.4023366638934071e-01 0.0000000000000000e+00  4.7177282412832873e-02 6.8855181575249336e-02 0.0000000000000000e+00  2.7264717692129143e-02 -7.3720371561037164e-03 0.0000000000000000e+00  1.9145347091301831e-02 -3.8222199219894983e-02 0.0000000000000000e+00  2.1948509775494385e-02 -9.3639734582379786e-02 0.0000000000000000e+00  2.3444078464877383e-02 -1.1724182024249304e-01 0.0000000000000000e+00  -4.8439295716998084e-03 -1.3162278495491977e-01 0.0000000000000000e+00  3.0086611573851070e-02 -1.2740644358579317e-01 0.0000000000000000e+00  -4.9611583649993582e-03 -1.3650927226779541e-01 0.0000000000000000e+00  2.9045441448421624e-02 -1.3986055078165294e-01 0.0000000000000000e+00  -4.7008352241408790e-03 -1.3949479688814931e-01 0.0000000000000000e+00  3.1762645219002912e-02 -1.4711400206980205e-01 0.0000000000000000e+00  2.6078602633831027e-03 -1.4046142042148155e-01 0.0000000000000000e+00  -1.1275576038339481e-03 -1.3250515291419462e-01 0.0000000000000000e+00  1.2050022926274171e-02 -1.1717516780517609e-01 0.0000000000000000e+00  -3.5034638254260622e-03 -1.2271536647215535e-01 0.0000000000000000e+00  1.2348163783301551e-02 -1.1436422954290178e-01 0.0000000000000000e+00  -6.7592062370298014e-03 -1.1555660543003851e-01 0.0000000000000000e+00  1.4905745396671487e-02 -1.1484472140703036e-01 0.0000000000000000e+00  -1.1668319381527299e-02 -1.1466926070877637e-01 0.0000000000000000e+00  2.0583759169607772e-02 -1.1826552599274846e-01 0.0000000000000000e+00  -7.0556276995779495e-03 -1.1724846011019506e-01 0.0000000000000000e+00  -1.2326911205998556e-02 -1.2066743234231406e-01 0.0000000000000000e+00  3.0967670960986128e-03 -1.2541056330306136e-01 0.0000000000000000e+00  -9.2954332878823973e-03 -1.2780552094650113e-01 0.0000000000000000e+00  2.4384479037630590e-03 -1.3481259643037863e-01 0.0000000000000000e+00  -1.6969872956614528e-02 -1.4291865801890233e-01 0.0000000000000000e+00  1.1030234706823225e-02 -1.4602556892550184e-01 0.0000000000000000e+00  -2.4426136764864187e-02 -1.5032137025206868e-01 0.0000000000000000e+00  1.3304404313399952e-02 -1.5983206897217486e-01 0.0000000000000000e+00  -2.3015399650512507e-02 -1.6079381510942881e-01 0.0000000000000000e+00  9.0437601913860854e-03 -1.8593680577553873e-01 0.0000000000000000e+00  -2.2721896443386982e-02 -1.8922313895655468e-01 0.0000000000000000e+00  1.1209260169939499e-02 -1.8478388302653034e-01 0.0000000000000000e+00  -2.7689270440509350e-02 -1.7982172896965942e-01 0.0000000000000000e+00  1.6500502970311182e-02 -1.9044458651531243e-01 0.0000000000000000e+00  -3.1643597749739065e-02 -2.0821005040010795e-01 0.0000000000000000e+00  2.2909074981863502e-02 -2.1845985304545512e-01 0.0000000000000000e+00  -2.4733993131721747e-02 -2.0206560778107044e-01 0.0000000000000000e+00  2.4149017759108125e-02 -2.1063722070295685e-01 0.0000000000000000e+00  4.9348598383596124e-03 -2.0246194229149000e-01 0.0000000000000000e+00  -1.9979019053647594e-02 -1.8824225506972167e-01 0.0000000000000000e+00  3.0751718490897174e-02 -1.5643387974364234e-01 0.0000000000000000e+00  -1.0326680836632435e-03 -1.7498634089360957e-01 0.0000000000000000e+00  5.8047582199558648e-02 -1.3759330539519057e-01 0.0000000000000000e+00  5.8504493620580252e-02 -1.0181997838198219e-01 0.0000000000000000e+00  -2.0393612283936775e-02 -8.3360046029247736e-02 0.0000000000000000e+00  -5.4916164879142970e-03 -1.0887532128344422e-01 0.0000000000000000e+00  3.5596742940071334e-02 -1.4999287237231940e-01 0.0000000000000000e+00  -3.5321993445309378e-03 -1.6190291398940784e-01 0.0000000000000000e+00  3.5387492002203619e-02 -1.9246172447501139e-01 0.0000000000000000e+00  1.2295604524984433e-02 -1.8538077065501041e-01 0.0000000000000000e+00  -2.1477351653772302e-02 -2.0129286488545595e-01 0.0000000000000000e+00  3.2330502520238696e-02 -1.8798354595269381e-01 0.0000000000000000e+00  -2.2767550875476834e-02 -1.9088592357373158e-01 0.0000000000000000e+00  2.8340661581964108e-02 -1.9086708288530352e-01 0.0000000000000000e+00  -2.2762435789871843e-02 -1.8918712683360417e-01 0.0000000000000000e+00  2.2898855005115935e-02 -1.8022036767284585e-01 0.0000000000000000e+00  -2.2747480941139181e-02 -1.7374269163444314e-01 0.0000000000000000e+00  2.1274460572764515e-02 -1.6277131448009247e-01 0.0000000000000000e+00  -2.3608357985072499e-02 -1.5820973354016268e-01 0.0000000000000000e+00  1.7161724033933377e-02 -1.5309363994624114e-01 0.0000000000000000e+00  -2.1746473896948563e-02 -1.4963868677859873e-01 0.0000000000000000e+00  1.4674913790985412e-02 -1.4234492026928178e-01 0.0000000000000000e+00  -2.0950781167494163e-02 -1.3607773705462789e-01 0.0000000000000000e+00  1.3479505126240051e-02 -1.2684202383342097e-01 0.0000000000000000e+00  -1.9762028485939723e-02 -1.2354918272429369e-01 0.0000000000000000e+00  1.2677563102289372e-02 -1.2151616828866904e-01 0.0000000000000000e+00  -1.7672731765908681e-02 -1.1797090970603208e-01 0.0000000000000000e+00  1.3102471080339729e-02 -1.2126787467897017e-01 0.0000000000000000e+00  -6.4191588213378548e-03 -1.1682058656900875e-01 0.0000000000000000e+00  -1.5987471416901627e-02 -1.1828559036479599e-01 0.0000000000000000e+00  3.3228692568465878e-03 -1.1106127986697169e-01 0.0000000000000000e+00  -1.4187400506742626e-02 -1.1821762253846539e-01 0.0000000000000000e+00  5.2358918460716124e-03 -1.2310846197082055e-01 0.0000000000000000e+00  -1.3362402936234937e-02 -1.2548961213762558e-01 0.0000000000000000e+00  5.3755556362036884e-03 -1.2747795145594548e-01 0.0000000000000000e+00  -1.2397511656300366e-02 -1.2411780986098755e-01 0.0000000000000000e+00  7.0962260862344247e-03 -1.3275026752822575e-01 0.0000000000000000e+00  4.0811266306990531e-05 -1.3767539548056448e-01 0.0000000000000000e+00  -3.0465638845336859e-02 -1.4752960838013859e-01 0.0000000000000000e+00  7.6023145751999048e-03 -1.4069449280268384e-01 0.0000000000000000e+00  -3.2365714765164040e-02 -1.4334678966410547e-01 0.0000000000000000e+00  6.2294518662887469e-03 -1.3999467207998470e-01 0.0000000000000000e+00  -3.4037550460942471e-02 -1.3291708700720289e-01 0.0000000000000000e+00  4.1968644097708143e-03 -1.2956117366049766e-01 0.0000000000000000e+00  -2.5884250277723144e-02 -1.1373236907719658e-01 0.0000000000000000e+00  -2.8919652560998436e-02 -9.4301490762446288e-02 0.0000000000000000e+00  -2.4290333232950441e-02 -4.3253955195567829e-02 0.0000000000000000e+00  -2.8780787945641928e-02 -1.2053063050635280e-02 0.0000000000000000e+00  -4.6213083658526263e-02 6.3945474404565661e-02 0.0000000000000000e+00  -6.0407973421286572e-02 1.4421687963810406e-01 0.0000000000000000e+00  -7.7404340426358006e-02 1.9891253772987028e-01 0.0000000000000000e+00  -2.8120908134888186e-03 -8.2906574194809304e-02 0.0000000000000000e+00  -5.1726013248186709e-03 9.5318852370684354e-02 0.0000000000000000e+00  -1.3246578314086651e-03 1.3442243383999050e-01 0.0000000000000000e+00  6.4324059858188740e-03 1.6036573046197153e-01 0.0000000000000000e+00  -1.9995540186104424e-03 -2.2627959363999684e-02 0.0000000000000000e+00  4.2842752287279524e-04 1.5909133135757730e-01 0.0000000000000000e+00  1.9357565180071873e-03 4.5393906626302737e-02 0.0000000000000000e+00  3.5733173273427480e-04 1.4927303986195886e-01 0.0000000000000000e+00  3.4907632740554615e-03 1.0468307324244533e-01 0.0000000000000000e+00  6.4808019787329250e-04 1.1142527460736337e-01 0.0000000000000000e+00  -2.1938187915537428e-03 1.4073532095750119e-01 0.0000000000000000e+00  3.1464769725087142e-03 1.0244879905277243e-01 0.0000000000000000e+00  -6.2739643717692336e-04 1.1869494164989576e-01 0.0000000000000000e+00  -2.8109074740401254e-03 1.0795624466854005e-01 0.0000000000000000e+00  1.0169768920507727e-04 9.7375133750428333e-02 0.0000000000000000e+00  -1.0029914974855490e-03 1.0979651649702188e-01 0.0000000000000000e+00  6.5314098994014404e-04 1.3029939376420621e-01 0.0000000000000000e+00  -1.6890241577491496e-03 9.4354115170988948e-02 0.0000000000000000e+00  -1.2243242211634983e-06 1.0133086705800631e-01 0.0000000000000000e+00  -7.8920987706652967e-04 9.0863655571835913e-02 0.0000000000000000e+00  -3.0321452248745530e-03 9.5386877258115205e-02 0.0000000000000000e+00  1.3571856949785158e-03 7.6264267566024405e-02 0.0000000000000000e+00  -6.6374494535819490e-04 8.7610163035843625e-02 0.0000000000000000e+00  -1.8833590419115396e-03 1.3370464614053440e-01 0.0000000000000000e+00  1.4599151489234411e-03 7.4226884236862425e-02 0.0000000000000000e+00  9.9248081824541718e-03 1.0041937281216837e-01 0.0000000000000000e+00  -2.8006211401400579e-02 -5.9325596946674455e-02 0.0000000000000000e+00  -3.6450371830732877e-03 1.0614319476524452e-01 0.0000000000000000e+00  -5.8486282885752295e-03 1.1484388049487072e-01 0.0000000000000000e+00  2.0248276651384962e-02 2.4230810788488540e-02 0.0000000000000000e+00  -3.5919016088818219e-03 7.7370041791493191e-02 0.0000000000000000e+00  -3.3071839674981471e-03 8.5080338986536136e-02 0.0000000000000000e+00  -1.6307248138634376e-03 9.8815809768184590e-02 0.0000000000000000e+00  -5.5028353926849724e-03 6.9979293752768762e-02 0.0000000000000000e+00  -7.4260258052593058e-04 7.7556905714815882e-02 0.0000000000000000e+00  -8.4532858077037950e-04 7.5973495096020707e-02 0.0000000000000000e+00  -1.7303801082509099e-03 6.8407410888135997e-02 0.0000000000000000e+00  -1.3622351441128710e-03 7.4476387497957555e-02 0.0000000000000000e+00  -2.7006292257787247e-03 9.7116387466482351e-02 0.0000000000000000e+00  1.2333282715319696e-03 7.2081727281936417e-02 0.0000000000000000e+00  8.2242880121905849e-04 6.6288858386514798e-02 0.0000000000000000e+00  -1.9633924051221639e-02 -1.0161420663617481e-01 0.0000000000000000e+00  1.8665916234402131e-02 -9.7927513344177569e-02 0.0000000000000000e+00  -4.4887182761977319e-02 6.7199222233836869e-02 0.0000000000000000e+00  2.3607561105930978e-02 -6.0301754302353829e-02