<?xml version="1.0"?>
<VTKFile type="UnstructuredGrid"  version="0.1"  >
<UnstructuredGrid>
<Piece  NumberOfPoints="1419" NumberOfCells="2698">
<Points>
<DataArray  type="Float64"  NumberOfComponents="3"  format="ascii">9.003589066046512e-08 -2.334864094384879e-06 0  1.169565037009394e-07 0.409997654970458 0  2.500000241110493 -3.522047289906153e-06 0  2.500000241110526 0.4099964779527406 0  0.6000002693136045 0.1899963665536049 0  0.6000003003863318 0.2099963645334028 0  0.25 0.2 0  0.1500001019790811 0.1999976826378828 0  0.2489897948556636 0.21 0  0.2489897948556636 0.19 0  0.600000292604154 0.1999963530255217 0  1.166282088052985e-07 0.3807119414069137 0  1.15696737314469e-07 0.3514262290846297 0  1.141465657662515e-07 0.322140517708373 0  1.120027941195728e-07 0.2928548066428717 0  1.093862166213833e-07 0.2635690954019982 0  1.064051502446222e-07 0.2342833836610089 0  1.031939734789462e-07 0.2049976709321469 0  1.000056742197983e-07 0.1757119573041331 0  9.707132250068385e-08 0.1464262426897865 0  9.452943624057245e-08 0.1171405272768601 0  9.256994275773557e-08 0.08785481136825551 0  9.114078376199588e-08 0.05856909540061205 0  9.030172418661066e-08 0.0292833798587687 0  0.03015452735866269 -2.335355990199438e-06 0  0.06140010871364954 -2.337136067890343e-06 0  0.09377632806598533 -2.341163979663696e-06 0  0.1273240809280463 -2.349115155854762e-06 0  0.1620857687691278 -2.36400341237377e-06 0  0.1981053238893864 -2.393252884265101e-06 0  0.2354282638867635 -2.448072323315138e-06 0  0.2741017392881042 -2.536006117371966e-06 0  0.3141746391847071 -2.65857822013869e-06 0  0.3556975901243585 -2.811937229362164e-06 0  0.3987230669617615 -2.977909678355198e-06 0  0.4433054381003586 -3.136667724982406e-06 0  0.4895010315804469 -3.27441041540264e-06 0  0.5373682400306001 -3.379198505830172e-06 0  0.5869675339649462 -3.448098848135289e-06 0  0.6383615832078319 -3.48937324500732e-06 0  0.6916153397988258 -3.509404196652874e-06 0  0.7467960917742926 -3.518087907659554e-06 0  0.8039735823391143 -3.521555778775608e-06 0  0.8632200520556008 -3.522659284336966e-06 0  0.9246103720503678 -3.522807424470643e-06 0  0.9882221211602074 -3.522650208128455e-06 0  1.054135686064944 -3.522467875469539e-06 0  1.122434341294796 -3.522318328635033e-06 0  1.193204418048046 -3.522210316666166e-06 0  1.266535330876398 -3.522141523805406e-06 0  1.342519757093108 -3.522101072982993e-06 0  1.421253689579411 -3.522077118377647e-06 0  1.50283663019836 -3.522063062548604e-06 0  1.587371680859794 -3.522055491692327e-06 0  1.674965659882997 -3.522051484087414e-06 0  1.765729242933645 -3.522049350918154e-06 0  1.8597771499894 -3.522048302160375e-06 0  1.957228218597017 -3.522047752213839e-06 0  2.05820557098019 -3.522047501845475e-06 0  2.162836832300346 -3.522047374068501e-06 0  2.271254198401321 -3.522047319923396e-06 0  2.383594687913908 -3.522047296751084e-06 0  2.500000241110496 0.1024964779524756 0  2.50000024111051 0.2049964779521994 0  2.500000241110522 0.3074964779524545 0  2.383594687914191 0.4099964779527472 0  2.271254198401876 0.4099964779527713 0  2.162836832301227 0.4099964779528278 0  2.058205570981544 0.4099964779529497 0  1.957228218599123 0.4099964779531974 0  1.85977714999297 0.4099964779537743 0  1.765729242939788 0.4099964779548198 0  1.674965659894318 0.4099964779570414 0  1.587371680880546 0.4099964779610602 0  1.502836630236874 0.4099964779687159 0  1.421253689651465 0.4099964779835135 0  1.342519757222148 0.4099964780086512 0  1.266535331103347 0.4099964780526025 0  1.19320441845044 0.4099964781353242 0  1.122434341993312 0.4099964782835779 0  1.054135687222194 0.4099964785312729 0  0.9882221230947661 0.4099964790210295 0  0.9246103751705911 0.4099964799192392 0  0.8632200570584221 0.4099964816370417 0  0.8039735901697359 0.4099964850712153 0  0.7467961037469585 0.40999649196539 0  0.6916153573925587 0.4099965054374389 0  0.6383616079650023 0.4099965318443929 0  0.5869675674030989 0.4099965777425154 0  0.5373682823323267 0.4099966497179801 0  0.4895010822834019 0.4099967539526335 0  0.4433054964559148 0.4099968855137387 0  0.3987231312064291 0.4099970348437034 0  0.3556976575362074 0.4099971888265059 0  0.3141747067231983 0.4099973313479595 0  0.2741018032841352 0.4099974485131564 0  0.2354283222160913 0.4099975319962449 0  0.198105375198394 0.4099975865357583 0  0.162085812922381 0.4099976183889278 0  0.1273241187941367 0.4099976360899324 0  0.09377636098102414 0.4099976462658482 0  0.06140013821038432 0.4099976515455732 0  0.03015455485902446 0.4099976542863524 0  0.2497468076502589 0.2050254481002335 0  0.2497468076502614 0.1949745518997913 0  0.2469965385485541 0.1829305891475571 0  0.2439893996307962 0.1762301170262122 0  0.2400332511727858 0.1700425769456574 0  0.2352134419240793 0.1645013735443701 0  0.2296339532558015 0.1597260036710299 0  0.2234151549578832 0.155819473983343 0  0.2166912089662614 0.1528660513012208 0  0.2096071749196284 0.1509294447462543 0  0.2023158810691196 0.1500514264446175 0  0.1949746264890088 0.1502509373219809 0  0.1877417884562536 0.1515236691849137 0  0.1807734050078876 0.1538421635911623 0  0.174219809177296 0.1571564003131533 0  0.1682223853077608 0.1613948788823225 0  0.1629105193541174 0.166466159089478 0  0.1583988071177033 0.1722608350998036 0  0.1547845824329527 0.1786538945833638 0  0.1521458169498983 0.1855074163647552 0  0.1505394383838083 0.1926735453444124 0  0.1505394432607352 0.2073218205014942 0  0.1521458267515913 0.214487951265807 0  0.1547845970537672 0.221341476140567 0  0.1583988266343461 0.2277345404124795 0  0.1629105436879022 0.2335292232157568 0  0.1682224145495613 0.2386005132193644 0  0.1742198432225107 0.2428390049590518 0  0.1807734439452403 0.2461532599407151 0  0.1877418322493618 0.248471779422977 0  0.194974675171173 0.2497445457972298 0  0.2023159345810994 0.2499441022251967 0  0.2096072333699507 0.2490661473625096 0  0.2166912721621675 0.2471296240930396 0  0.2234152228465697 0.2441763173319698 0  0.2296340256576569 0.2402699441789804 0  0.2352135181911508 0.235494794292583 0  0.2400333301169942 0.2299538964608161 0  0.2439894778636686 0.2237668335588065 0  0.2469966063256004 0.2170671691967078 0  0.2564581891442006 0.2099989170424641 0  0.2639265179610863 0.2099985547035047 0  0.2713948475238228 0.2099983204301444 0  0.2788631533639905 0.2099981366120936 0  0.2863314623190479 0.2099979811581037 0  0.29379976321082 0.2099978458806789 0  0.3012680667025265 0.2099977252541075 0  0.3087363676978263 0.2099976205012831 0  0.31620467358296 0.2099975230067433 0  0.3236729738651274 0.209997433218283 0  0.331141281993596 0.2099973502349773 0  0.3386095818454511 0.209997273591334 0  0.3460778899768668 0.2099971988559719 0  0.3535461909016274 0.2099971191870931 0  0.3610144910744418 0.2099970736309413 0  0.3684827965754766 0.209997022469612 0  0.3759510922127792 0.2099969688646502 0  0.3834193958556275 0.2099969181229872 0  0.3908876897377428 0.2099968682809736 0  0.3983559926609373 0.209996819917712 0  0.40582428470277 0.2099967723519481 0  0.4132925866316369 0.2099967200599167 0  0.4207608770558749 0.2099966568836263 0  0.4282291754541131 0.2099966299429671 0  0.4356974815401994 0.2099965902105929 0  0.4431657805696284 0.2099965535083778 0  0.4506340918049596 0.2099965109659822 0  0.4581023943181348 0.2099964765044166 0  0.4655707120553952 0.2099964401143535 0  0.4730390175993585 0.2099964076380064 0  0.4805073385245453 0.2099963829852846 0  0.4879756481342061 0.2099963641065388 0  0.4954439805194739 0.2099963139425264 0  0.5029122943863594 0.2099962954895973 0  0.5103806258323116 0.2099963120099274 0  0.5178489345499538 0.209996301359869 0  0.5253172556748884 0.209996290211787 0  0.5327855629069859 0.2099962787309191 0  0.5402538861302751 0.2099962743065004 0  0.5477221947118802 0.2099962736325424 0  0.5551905151134741 0.2099962762122825 0  0.562658823286562 0.209996263521312 0  0.5701271183055557 0.2099962954393538 0  0.5775954247063806 0.2099963175641386 0  0.5850637199900345 0.2099963231320993 0  0.5925320178971811 0.2099963391037838 0  0.6000003022253223 0.2049963546111045 0  0.6000002775735916 0.1949963602637463 0  0.5925319681389888 0.189996346807099 0  0.5850636713767594 0.1899963220073737 0  0.5775953608457457 0.189996299432618 0  0.5701270592840795 0.189996277640247 0  0.5626587501489624 0.1899962478087584 0  0.5551904368032087 0.1899962537145684 0  0.5477221343580335 0.18999624844456 0  0.5402538147761993 0.1899962445813371 0  0.5327855114030353 0.1899962460595943 0  0.5253171897259017 0.1899962504956533 0  0.5178488847997981 0.1899962555084214 0  0.5103805646894491 0.1899962592044531 0  0.502912257268868 0.1899962656380541 0  0.4954439240736713 0.1899962820875425 0  0.4879756163569086 0.1899963087043518 0  0.4805072946715521 0.1899963392594174 0  0.473038989301904 0.1899963700362332 0  0.4655706668705653 0.1899964028883907 0  0.4581023641743235 0.1899964390182984 0  0.4506340471399762 0.189996479070402 0  0.4431657457747364 0.1899965215352756 0  0.4356974304716229 0.1899965656396286 0  0.4282291283064385 0.1899966082308883 0  0.420760817311057 0.1899966413864158 0  0.4132925097406107 0.1899967044117058 0  0.4058242100707604 0.1899967608962153 0  0.3983559018503199 0.189996812798013 0  0.3908876009592879 0.1899968648864538 0  0.383419292351567 0.1899969169811031 0  0.3759509905835505 0.1899969698019345 0  0.3684826824473722 0.1899970238570522 0  0.3610143816928984 0.1899970760121547 0  0.3535460732926378 0.1899971246595597 0  0.3460777638299939 0.1899972032084903 0  0.3386094613289099 0.1899972793875 0  0.3311411523487081 0.1899973571137919 0  0.3236728516523594 0.189997439719486 0  0.3162045459618967 0.1899975292212299 0  0.3087362462400719 0.1899976250296155 0  0.3012679426390221 0.1899977288883649 0  0.2937996408707793 0.1899978496537044 0  0.2863313347557185 0.1899979841026044 0  0.2788630313805359 0.1899981363565183 0  0.2713947099795461 0.1899983265200718 0  0.2639263999060995 0.1899985744906882 0  0.2564580877563193 0.1899989240744024 0  0
[...]
<PointData  Vectors="f_30-0"> 
<DataArray  type="Float64"  Name="f_30-0"  NumberOfComponents="3" format="ascii">0.0000000000000000e+00 0.0000000000000000e+00 0.0000000000000000e+00  0.0000000000000000e+00 0.0000000000000000e+00 0.0000000000000000e+00  0.0000000000000000e+00 0.0000000000000000e+00 0.0000000000000000e+00  0.0000000000000000e+00 0.0000000000000000e+00 0.0000000000000000e+00  5.0084533002503456e-02 -1.1519108017378546e-01 0.0000000000000000e+00  1.1530753913212680e-01 -1.0623893994045018e-01 0.0000000000000000e+00  0.0000000000000000e+00 0.0000000000000000e+00 0.0000000000000000e+00  0.0000000000000000e+00 0.0000000000000000e+00 0.0000000000000000e+00  0.0000000000000000e+00 0.0000000000000000e+00 0.0000000000000000e+00  0.0000000000000000e+00 0.0000000000000000e+00 0.0000000000000000e+00  1.8714717003899647e-01 -2.4142748851420698e-01 0.0000000000000000e+00  0.0000000000000000e+00 0.0000000000000000e+00 0.0000000000000000e+00  0.0000000000000000e+00 0.0000000000000000e+00 0.0000000000000000e+00  0.0000000000000000e+00 0.0000000000000000e+00 0.0000000000000000e+00  0.0000000000000000e+00 0.0000000000000000e+00 0.0000000000000000e+00  0.0000000000000000e+00 0.0000000000000000e+00 0.0000000000000000e+00  0.0000000000000000e+00 0.0000000000000000e+00 0.0000000000000000e+00  0.0000000000000000e+00 0.0000000000000000e+00 0.0000000000000000e+00  0.0000000000000000e+00 0.0000000000000000e+00 0.0000000000000000e+00  0.0000000000000000e+00 0.0000000000000000e+00 0.0000000000000000e+00  0.0000000000000000e+00 0.0000000000000000e+00 0.0000000000000000e+00  0.0000000000000000e+00 0.0000000000000000e+00 0.0000000000000000e+00  0.0000000000000000e+00 0.0000000000000000e+00 0.0000000000000000e+00  0.0000000000000000e+00 0.0000000000000000e+00 0.0000000000000000e+00  0.0000000000000000e+00 0.0000000000000000e+00 0.0000000000000000e+00  0.0000000000000000e+00 0.0000000000000000e+00 0.0000000000000000e+00  0.0000000000000000e+00 0.0000000000000000e+00 0.0000000000000000e+00  0.0000000000000000e+00 0.0000000000000000e+00 0.0000000000000000e+00  0.0000000000000000e+00 0.0000000000000000e+00 0.0000000000000000e+00  0.0000000000000000e+00 0.0000000000000000e+00 0.0000000000000000e+00  0.0000000000000000e+00 0.0000000000000000e+00 0.0000000000000000e+00  0.0000000000000000e+00 0.0000000000000000e+00 0.0000000000000000e+00  0.0000000000000000e+00 0.0000000000000000e+00 0.0000000000000000e+00  0.0000000000000000e+00 0.0000000000000000e+00 0.0000000000000000e+00  0.0000000000000000e+00 0.0000000000000000e+00 0.0000000000000000e+00  0.0000000000000000e+00 0.0000000000000000e+00 0.0000000000000000e+00  0.0000000000000000e+00 0.0000000000000000e+00 0.0000000000000000e+00  0.0000000000000000e+00 0.0000000000000000e+00 0.0000000000000000e+00  0.0000000000000000e+00 0.0000000000000000e+00 0.0000000000000000e+00  0.0000000000000000e+00 0.0000000000000000e+00 0.0000000000000000e+00  0.0000000000000000e+00 0.0000000000000000e+00 0.0000000000000000e+00  0.0000000000000000e+00 0.0000000000000000e+00 0.0000000000000000e+00  0.0000000000000000e+00 0.0000000000000000e+00 0.0000000000000000e+00  0.0000000000000000e+00 0.0000000000000000e+00 0.0000000000000000e+00  0.0000000000000000e+00 0.0000000000000000e+00 0.0000000000000000e+00  0.0000000000000000e+00 0.0000000000000000e+00 0.0000000000000000e+00  0.0000000000000000e+00 0.0000000000000000e+00 0.0000000000000000e+00  0.0000000000000000e+00 0.0000000000000000e+00 0.0000000000000000e+00  0.0000000000000000e+00 0.0000000000000000e+00 0.0000000000000000e+00  0.0000000000000000e+00 0.0000000000000000e+00 0.0000000000000000e+00  0.0000000000000000e+00 0.0000000000000000e+00 0.0000000000000000e+00  0.0000000000000000e+00 0.0000000000000000e+00 0.0000000000000000e+00  0.0000000000000000e+00 0.0000000000000000e+00 0.0000000000000000e+00  0.0000000000000000e+00 0.0000000000000000e+00 0.0000000000000000e+00  0.0000000000000000e+00 0.0000000000000000e+00 0.0000000000000000e+00  0.0000000000000000e+00 0.0000000000000000e+00 0.0000000000000000e+00  0.0000000000000000e+00 0.0000000000000000e+00 0.0000000000000000e+00  0.0000000000000000e+00 0.0000000000000000e+00 0.0000000000000000e+00  0.0000000000000000e+00 0.0000000000000000e+00 0.0000000000000000e+00  0.0000000000000000e+00 0.0000000000000000e+00 0.0000000000000000e+00  0.0000000000000000e+00 0.0000000000000000e+00 0.0000000000000000e+00  0.0000000000000000e+00 0.0000000000000000e+00 0.0000000000000000e+00  9.7495419316134261e-09 3.3893901721637723e-09 0.0000000000000000e+00  -2.1021147074323993e-10 4.8789928270180229e-09 0.0000000000000000e+00  -1.0027808178392969e-08 3.8632656691494610e-09 0.0000000000000000e+00  0.0000000000000000e+00 0.0000000000000000e+00 0.0000000000000000e+00  0.0000000000000000e+00 0.0000000000000000e+00 0.0000000000000000e+00  0.0000000000000000e+00 0.0000000000000000e+00 0.0000000000000000e+00  0.0000000000000000e+00 0.0000000000000000e+00 0.0000000000000000e+00  0.0000000000000000e+00 0.0000000000000000e+00 0.0000000000000000e+00  0.0000000000000000e+00 0.0000000000000000e+00 0.0000000000000000e+00  0.0000000000000000e+00 0.0000000000000000e+00 0.0000000000000000e+00  0.0000000000000000e+00 0.0000000000000000e+00 0.0000000000000000e+00  0.0000000000000000e+00 0.0000000000000000e+00 0.0000000000000000e+00  0.0000000000000000e+00 0.0000000000000000e+00 0.0000000000000000e+00  0.0000000000000000e+00 0.0000000000000000e+00 0.0000000000000000e+00  0.0000000000000000e+00 0.0000000000000000e+00 0.0000000000000000e+00  0.0000000000000000e+00 0.0000000000000000e+00 0.0000000000000000e+00  0.0000000000000000e+00 0.0000000000000000e+00 0.0000000000000000e+00  0.0000000000000000e+00 0.0000000000000000e+00 0.0000000000000000e+00  0.0000000000000000e+00 0.0000000000000000e+00 0.0000000000000000e+00  0.0000000000000000e+00 0.0000000000000000e+00 0.0000000000000000e+00  0.0000000000000000e+00 0.0000000000000000e+00 0.0000000000000000e+00  0.0000000000000000e+00 0.0000000000000000e+00 0.0000000000000000e+00  0.0000000000000000e+00 0.0000000000000000e+00 0.0000000000000000e+00  0.0000000000000000e+00 0.0000000000000000e+00 0.0000000000000000e+00  0.0000000000000000e+00 0.0000000000000000e+00 0.0000000000000000e+00  0.0000000000000000e+00 0.0000000000000000e+00 0.0000000000000000e+00  0.0000000000000000e+00 0.0000000000000000e+00 0.0000000000000000e+00  0.0000000000000000e+00 0.0000000000000000e+00 0.0000000000000000e+00  0.0000000000000000e+00 0.0000000000000000e+00 0.0000000000000000e+00  0.0000000000000000e+00 0.0000000000000000e+00 0.0000000000000000e+00  0.0000000000000000e+00 0.0000000000000000e+00 0.0000000000000000e+00  0.0000000000000000e+00 0.0000000000000000e+00 0.0000000000000000e+00  0.0000000000000000e+00 0.0000000000000000e+00 0.0000000000000000e+00  0.0000000000000000e+00 0.0000000000000000e+00 0.0000000000000000e+00  0.0000000000000000e+00 0.0000000000000000e+00 0.0000000000000000e+00  0.0000000000000000e+00 0.0000000000000000e+00 0.0000000000000000e+00  0.0000000000000000e+00 0.0000000000000000e+00 0.0000000000000000e+00  0.0000000000000000e+00 0.0000000000000000e+00 0.0000000000000000e+00  0.0000000000000000e+00 0.0000000000000000e+00 0.0000000000000000e+00  0.0000000000000000e+00 0.0000000000000000e+00 0.0000000000000000e+00  0.0000000000000000e+00 0.0000000000000000e+00 0.0000000000000000e+00  0.0000000000000000e+00 0.0000000000000000e+00 0.0000000000000000e+00  0.0000000000000000e+00 0.0000000000000000e+00 0.0000000000000000e+00  0.0000000000000000e+00 0.0000000000000000e+00 0.0000000000000000e+00  0.0000000000000000e+00 0.0000000000000000e+00 0.0000000000000000e+00  0.0000000000000000e+00 0.0000000000000000e+00 0.0000000000000000e+00  0.0000000000000000e+00 0.0000000000000000e+00 0.0000000000000000e+00  0.0000000000000000e+00 0.0000000000000000e+00 0.0000000000000000e+00  0.0000000000000000e+00 0.0000000000000000e+00 0.0000000000000000e+00  0.0000000000000000e+00 0.0000000000000000e+00 0.0000000000000000e+00  0.0000000000000000e+00 0.0000000000000000e+00 0.0000000000000000e+00  0.0000000000000000e+00 0.0000000000000000e+00 0.0000000000000000e+00  0.0000000000000000e+00 0.0000000000000000e+00 0.0000000000000000e+00  0.0000000000000000e+00 0.0000000000000000e+00 0.0000000000000000e+00  0.0000000000000000e+00 0.0000000000000000e+00 0.0000000000000000e+00  0.0000000000000000e+00 0.0000000000000000e+00 0.0000000000000000e+00  0.0000000000000000e+00 0.0000000000000000e+00 0.0000000000000000e+00  0.0000000000000000e+00 0.0000000000000000e+00 0.0000000000000000e+00  0.0000000000000000e+00 0.0000000000000000e+00 0.0000000000000000e+00  0.0000000000000000e+00 0.0000000000000000e+00 0.0000000000000000e+00  0.0000000000000000e+00 0.0000000000000000e+00 0.0000000000000000e+00  0.0000000000000000e+00 0.0000000000000000e+00 0.0000000000000000e+00  0.0000000000000000e+00 0.0000000000000000e+00 0.0000000000000000e+00  0.0000000000000000e+00 0.0000000000000000e+00 0.0000000000000000e+00  0.0000000000000000e+00 0.0000000000000000e+00 0.0000000000000000e+00  0.0000000000000000e+00 0.0000000000000000e+00 0.0000000000000000e+00  0.0000000000000000e+00 0.0000000000000000e+00 0.0000000000000000e+00  0.0000000000000000e+00 0.0000000000000000e+00 0.0000000000000000e+00  0.0000000000000000e+00 0.0000000000000000e+00 0.0000000000000000e+00  0.0000000000000000e+00 0.0000000000000000e+00 0.0000000000000000e+00  0.0000000000000000e+00 0.0000000000000000e+00 0.0000000000000000e+00  0.0000000000000000e+00 0.0000000000000000e+00 0.0000000000000000e+00  0.0000000000000000e+00 0.0000000000000000e+00 0.0000000000000000e+00  0.0000000000000000e+00 0.0000000000000000e+00 0.0000000000000000e+00  0.0000000000000000e+00 0.0000000000000000e+00 0.0000000000000000e+00  0.0000000000000000e+00 0.0000000000000000e+00 0.0000000000000000e+00  0.0000000000000000e+00 0.0000000000000000e+00 0.0000000000000000e+00  0.0000000000000000e+00 0.0000000000000000e+00 0.0000000000000000e+00  0.0000000000000000e+00 0.0000000000000000e+00 0.0000000000000000e+00  0.0000000000000000e+00 0.0000000000000000e+00 0.0000000000000000e+00  0.0000000000000000e+00 0.0000000000000000e+00 0.0000000000000000e+00  1.1469178662414971e-01 6.5353299412208887e-01 0.0000000000000000e+00  8.5365487814269031e-02 5.9524313566444131e-01 0.0000000000000000e+00  2.1066218859179753e-01 4.6627889414272627e-01 0.0000000000000000e+00  9.4408279047864876e-02 2.7784204339247381e-01 0.0000000000000000e+00  1.1913640840324834e-01 1.6099280494039672e-01 0.0000000000000000e+00  5.0682777604171440e-02 3.8222041337170061e-02 0.0000000000000000e+00  6.6985008233046220e-02 -4.2378649855515003e-02 0.0000000000000000e+00  3.4427079952092242e-03 -1.2563596490684853e-01 0.0000000000000000e+00  4.3067288865840339e-02 -1.8487359029220082e-01 0.0000000000000000e+00  -1.3702760514262871e-02 -2.1533885363026559e-01 0.0000000000000000e+00  4.2888980942218324e-02 -2.7327400937326696e-01 0.0000000000000000e+00  -1.6652683410887496e-02 -2.7600449399857246e-01 0.0000000000000000e+00  6.3448726137231862e-02 -3.3086437062297375e-01 0.0000000000000000e+00  1.6108205491216474e-02 -3.5651975836671945e-01 0.0000000000000000e+00  7.0117712554699733e-03 -3.2695491042749003e-01 0.0000000000000000e+00  3.9080400663457388e-02 -2.8737274215858455e-01 0.0000000000000000e+00  -4.7750332468190354e-03 -3.1820168053029252e-01 0.0000000000000000e+00  2.9415245988912698e-02 -3.0307747750902192e-01 0.0000000000000000e+00  -2.6657952426424811e-02 -3.1093038527638084e-01 0.0000000000000000e+00  2.1953801342887762e-02 -3.3734402663494051e-01 0.0000000000000000e+00  -6.7254400559770083e-02 -3.2123020830625987e-01 0.0000000000000000e+00  2.2502645314743223e-02 -3.7176048697379382e-01 0.0000000000000000e+00  -7.6767425789465021e-02 -4.0732053650264871e-01 0.0000000000000000e+00  -1.1089737836330460e-01 -3.9273759795984303e-01 0.0000000000000000e+00  -8.2381651540722953e-02 -5.3246475218307776e-01 0.0000000000000000e+00  -1.2360604549475782e-01 -4.6789803792684581e-01 0.0000000000000000e+00  -8.6988317778232724e-02 -6.2013857762064806e-01 0.0000000000000000e+00  -1.6169010592900124e-01 -5.8540505402586129e-01 0.0000000000000000e+00  -2.1744447500592325e-02 -6.6660888871441659e-01 0.0000000000000000e+00  -1.5331565176885256e-01 -7.1543909152554430e-01 0.0000000000000000e+00  -4.2740921744273568e-02 -6.8508285584042727e-01 0.0000000000000000e+00  -1.5987780147779887e-01 -4.5458236999171608e-01 0.0000000000000000e+00  1.2733314314235875e-01 -1.0419564892913791e+00 0.0000000000000000e+00  -1.1296719301590574e-01 -1.0813726961349068e+00 0.0000000000000000e+00  1.5876090630895368e-01 -4.5587153790842505e-01 0.0000000000000000e+00  3.6224622474671501e-02 -5.5241327360485937e-01 0.0000000000000000e+00  1.1947303511163690e-01 -5.6644144977479371e-01 0.0000000000000000e+00  -1.0081073525086158e-02 -6.7919541115800519e-01 0.0000000000000000e+00  1.6670520638617409e-01 -6.5617556140481492e-01 0.0000000000000000e+00  6.4539817474841207e-02 -6.2014969613982696e-01 0.0000000000000000e+00  1.9684117648430852e-01 -4.5130815719994616e-01 0.0000000000000000e+00  1.3611977694185989e-01 -4.6572398329447873e-01 0.0000000000000000e+00  7.9798881654645382e-02 -4.0019148559676948e-01 0.0000000000000000e+00  1.7657040403426888e-01 -2.5653647364761045e-01 0.0000000000000000e+00  1.4077515274739358e-01 -4.4523845542906254e-01 0.0000000000000000e+00  2.9381128849671168e-01 -4.6893236847422437e-01 0.0000000000000000e+00  2.8141981132767585e-01 -3.0989614368960816e-01 0.0000000000000000e+00  4.7600653896889542e-02 -1.8861884179904789e-01 0.0000000000000000e+00  7.2785082507112048e-02 -2.1393282516672038e-01 0.0000000000000000e+00  1.6120571186236601e-01 -2.9444993634813627e-01 0.0000000000000000e+00  5.7167230134243505e-02 -3.3615395185935876e-01 0.0000000000000000e+00  1.3921142952141702e-01 -4.1226488798574068e-01 0.0000000000000000e+00  7.6602468017966593e-02 -4.0897658924283509e-01 0.0000000000000000e+00  2.3257467814448700e-02 -4.6569441727893562e-01 0.0000000000000000e+00  1.5878057108960753e-01 -5.0030365049313319e-01 0.0000000000000000e+00  -1.0902741116548816e-02 -5.3683710014511621e-01 0.0000000000000000e+00  1.1985648796976775e-01 -5.5215090045222059e-01 0.0000000000000000e+00  -4.3669119681385531e-02 -5.5015176282753686e-01 0.0000000000000000e+00  1.3246145998316139e-01 -5.6116723907615296e-01 0.0000000000000000e+00  1.6663085906620748e-02 -6.0948118761917336e-01 0.0000000000000000e+00  1.5575891131369055e-01 -7.0143212851372805e-01 0.0000000000000000e+00  -1.3471589153236699e-01 -7.0472254212082464e-01 0.0000000000000000e+00  1.0492900864303619e-02 -6.3182070738020890e-01 0.0000000000000000e+00  -1.2056960528257400e-01 -5.9872655624829763e-01 0.0000000000000000e+00  4.5928606816318662e-02 -5.8830516751300455e-01 0.0000000000000000e+00  -1.2979757242041276e-01 -5.7200395266303439e-01 0.0000000000000000e+00  9.7825179424277358e-03 -5.3568190443942343e-01 0.0000000000000000e+00  -1.2820311017201741e-01 -5.0648137045603503e-01 0.0000000000000000e+00  2.3546172305874075e-03 -4.7300828047892074e-01 0.0000000000000000e+00  -1.1890156631739431e-01 -4.3811675104641334e-01 0.0000000000000000e+00  -2.3713526347854011e-03 -4.1499145719374281e-01 0.0000000000000000e+00  -5.3609676969220643e-02 -3.8391254931365876e-01 0.0000000000000000e+00  -8.9112328440326169e-02 -3.8064636918817696e-01 0.0000000000000000e+00  -1.9040005647557472e-02 -3.3258490806262175e-01 0.0000000000000000e+00  -7.1196952963752599e-02 -3.3389687985613276e-01 0.0000000000000000e+00  -4.8596645915968944e-03 -3.2770292531311057e-01 0.0000000000000000e+00  -6.1174475609091880e-02 -3.2515223019273104e-01 0.0000000000000000e+00  -4.3457512946504908e-03 -3.1984907397994367e-01 0.0000000000000000e+00  -5.3342084087989579e-02 -3.1037626022075954e-01 0.0000000000000000e+00  4.0760586775746045e-03 -3.2217947176651568e-01 0.0000000000000000e+00  -1.8972721225393889e-02 -3.1881340207834186e-01 0.0000000000000000e+00  -8.9647750360051473e-02 -3.2704623680514483e-01 0.0000000000000000e+00  -1.3273811787375699e-02 -2.8388564126875149e-01 0.0000000000000000e+00  -9.4931064592956846e-02 -2.6629834532729540e-01 0.0000000000000000e+00  -2.6473073390910987e-02 -2.2595394641793132e-01 0.0000000000000000e+00  -8.2839163066842664e-02 -1.8769502216818271e-01 0.0000000000000000e+00  -2.7006054225211708e-02 -1.3143836449864105e-01 0.0000000000000000e+00  -6.2119143533840196e-02 -6.3806452287745924e-02 0.0000000000000000e+00  -1.4106481765709361e-02 3.1222824136607829e-02 0.0000000000000000e+00  -3.3642544001160103e-02 1.4908344292752057e-01 0.0000000000000000e+00  4.1655189222830555e-02 2.0331782129198087e-01 0.0000000000000000e+00  -1.2179288779056771e-01 4.7545466885765109e-01 0.0000000000000000e+00  -2.2115413882839249e-01 8.5406505761662743e-01 0.0000000000000000e+00  -2.2867729362468195e-01 6.6279071117698540e-01 0.0000000000000000e+00  -8.9200498727156161e-03 -4.1179177974063086e-01 0.0000000000000000e+00  -1.3328351578908777e-02 2.2492166245029435e-01 0.0000000000000000e+00  7.5744328283743282e-03 2.7833891409779132e-01 0.0000000000000000e+00  6.3291686277354856e-03 4.1442837293600610e-01 0.0000000000000000e+00  -6.3838587195753013e-02 -2.9997635712435722e-01 0.0000000000000000e+00  2.7771474399971113e-02 4.7072657223249220e-01 0.0000000000000000e+00  1.4886960446742576e-02 -1.0140354707734488e-01 0.0000000000000000e+00  5.6572360636765642e-02 4.5879805899018106e-01 0.0000000000000000e+00  4.6428224205217273e-03 1.2583002159329523e-01 0.0000000000000000e+00  -7.9097571226185916e-04 1.9341635928817316e-01 0.0000000000000000e+00  -1.4615694168621665e-01 5.5923851400420721e-01 0.0000000000000000e+00  4.7202801715871320e-03 2.5273460805228026e-01 0.0000000000000000e+00  -6.2487827534595385e-02 5.0524815551080282e-01 0.0000000000000000e+00  -3.7679785066443731e-03 2.2482555603118798e-01 0.0000000000000000e+00  -1.4706747547909109e-03 2.5236102393293491e-01 0.0000000000000000e+00  -7.9719653928158780e-03 4.6618354689799335e-01 0.0000000000000000e+00  1.3965378881124718e-01 5.5891684808934350e-01 0.0000000000000000e+00  -1.1521816937581340e-02 2.6245530299588221e-01 0.0000000000000000e+00  -1.0645486296640959e-02 4.1153875531018014e-01 0.0000000000000000e+00  -1.8021674561118301e-03 2.7558517249559938e-01 0.0000000000000000e+00  -1.6140539047967986e-02 3.5181925825953436e-01 0.0000000000000000e+00  9.2159206332977570e-03 2.5606142244041236e-01 0.0000000000000000e+00  -6.0737357802753916e-04 2.1040478139183577e-01 0.0000000000000000e+00  -9.0756636283710179e-03 2.9605439119232785e-01 0.0000000000000000e+00  4.5960082412150665e-03 4.0204880299679377e-02 0.0000000000000000e+00  -4.0406499314562458e-03 2.0196148555810156e-01 0.0000000000000000e+00  -9.5255227045096952e-02 -3.8529961688827324e-01 0.0000000000000000e+00  8.4169702122022742e-03 3.1428130697076967e-01 0.0000000000000000e+00  -2.3727668619607508e-02 3.3293176131159780e-01 0.0000000000000000e+00  2.4078766687386018e-02 -1.2932002883710075e-01 0.0000000000000000e+00  1.9106185784107776e-02 1.1997296732502878e-01 0.0000000000000000e+00  2.1671462790190610e-02 3.3648651275868774e-01 0.0000000000000000e+00  -2.8192922143698538e-02 3.1053947873077858e-01 0.0000000000000000e+00  -1.0561286139586439e-02 1.7976769727994921e-01 0.0000000000000000e+00  -2.3669182357942860e-03 3.3945110308380660e-01 0.0000000000000000e+00  1.7572982352994246e-02 1.4856890375162277e-01 0.0000000000000000e+00  1.8553069065780315e-03 1.8374438911635493e-01 0.0000000000000000e+00  7.6561068659232552e-03 3.1789951921746495e-01 0.0000000000000000e+00  -1.9796109389684344e-03 5.0950086258778349e-01 0.0000000000000000e+00  1.8657401239184725e-02 2.1171858969295138e-01 0.0000000000000000e+00  9.4980117622837593e-03 2.5425593131041396e-01 0.0000000000000000e+00  -4.8556315044794802e-02 -3.7558353287418517e-01 0.0000000000000000e+00  1.5879629840780832e-01 -3.2244762621300238e-01 0.0000000000000000e+00  -1.5110020179361533e-01 1.8181433356622326e-01 0.0000000000000000e+00  1.5659644574123392e-02 -3.8029346417431242e-01 0.00000