<?xml version="1.0"?>
<VTKFile type="UnstructuredGrid"  version="0.1"  >
<UnstructuredGrid>
<Piece  NumberOfPoints="1419" NumberOfCells="2698">
<Points>
<DataArray  type="Float64"  NumberOfComponents="3"  format="ascii">-4.49988242766274e-10 -1.370136170311125e-07 0  6.216235248873247e-10 0.409999862491197 0  2.500000000174984 -2.015770469856196e-07 0  2.500000000174984 0.4099997984229551 0  0.6000000004029642 0.1899997893064395 0  0.5999999999562992 0.2099997899963334 0  0.25 0.2 0  0.150000000070713 0.1999998639090427 0  0.2489897948556636 0.21 0  0.2489897948556636 0.19 0  0.6000000002329758 0.1999997880985822 0  6.09876516163531e-10 0.3807141482425844 0  5.763453081555025e-10 0.3514284340576156 0  5.196999513788802e-10 0.3221427199210062 0  4.394934892437059e-10 0.2928570057998412 0  3.395626934185164e-10 0.2635712916690429 0  2.236193763274388e-10 0.2342855775118731 0  9.613867282795803e-11 0.2049998633032016 0  -3.228031169260816e-11 0.1757141490477329 0  -1.523085060522125e-10 0.1464284347414072 0  -2.578765525953667e-10 0.1171427203941257 0  -3.406405769589022e-10 0.0878570060218003 0  -4.019106568052085e-10 0.05857129164710202 0  -4.3836739604093e-10 0.02928557729516127 0  0.03015443714201013 -1.370394555659931e-07 0  0.06140001936333773 -1.37132814599443e-07 0  0.09377624019821683 -1.37343395943683e-07 0  0.1273239950797526 -1.377577244070137e-07 0  0.162085685235169 -1.385309680883339e-07 0  0.1981052423849652 -1.400438182763205e-07 0  0.2354281830179655 -1.428653540797998e-07 0  0.2741016564654997 -1.473656503036064e-07 0  0.3141745509517637 -1.536112174512753e-07 0  0.3556974915027389 -1.614189283193631e-07 0  0.3987229532747599 -1.699420231321312e-07 0  0.443305304766493 -1.783224246110151e-07 0  0.4895008754400673 -1.859313911615694e-07 0  0.5373680606943211 -1.92103843585733e-07 0  0.5869673342588714 -1.964685902630061e-07 0  0.6383613677173028 -1.992378129247685e-07 0  0.6916151139592519 -2.006463965907732e-07 0  0.7467958597052763 -2.012731373714295e-07 0  0.8039733465468395 -2.015288469744979e-07 0  0.863219814113191 -2.016128817792142e-07 0  0.924610132854448 -2.016266577968958e-07 0  0.9882218812639786 -2.016172673829394e-07 0  1.054135445730843 -2.016054174339863e-07 0  1.122434100715996 -2.015954070391398e-07 0  1.193204177315378 -2.015881194302845e-07 0  1.266535090054008 -2.015834573570782e-07 0  1.3425195162211 -2.015807082500134e-07 0  1.421253448678764 -2.015790784258254e-07 0  1.502836389281172 -2.01578121445566e-07 0  1.587371439933779 -2.015776057866909e-07 0  1.674965418952336 -2.015773327600762e-07 0  1.765729002000517 -2.01577187419928e-07 0  1.859776909055061 -2.015771159603463e-07 0  1.957227977662044 -2.01577078487481e-07 0  2.058205330044926 -2.015770614273184e-07 0  2.162836591364935 -2.01577052720516e-07 0  2.271253957465849 -2.015770490310228e-07 0  2.383594446978409 -2.015770474520398e-07 0  2.500000000174984 0.1024997984227145 0  2.500000000174984 0.2049997984224283 0  2.500000000174984 0.3074997984226731 0  2.38359444697864 0.4099997984229555 0  2.271253957466299 0.4099997984229571 0  2.162836591365583 0.409999798422961 0  2.058205330045761 0.4099997984229694 0  1.957227977663053 0.4099997984229862 0  1.859776909056236 0.4099997984230255 0  1.765729002001849 0.4099997984230968 0  1.674965418953825 0.4099997984232481 0  1.587371439935438 0.409999798423522 0  1.502836389283024 0.4099997984240439 0  1.42125344868087 0.409999798425053 0  1.342519516223559 0.4099997984267684 0  1.266535090056999 0.4099997984297705 0  1.193204177319244 0.4099997984354329 0  1.122434100721278 0.4099997984456079 0  1.054135445738281 0.4099997984626629 0  0.988221881275 0.409999798496572 0  0.9246101328708282 0.4099997985590463 0  0.8632198141385689 0.4099997986790227 0  0.8039733465875037 0.4099997989192742 0  0.7467958597734504 0.4099997994005558 0  0.6916151140802416 0.4099998003321676 0  0.6383613679485475 0.4099998021164902 0  0.5869673347018605 0.4099998051009246 0  0.5373680614701286 0.4099998095549221 0  0.4895008766567806 0.4099998156138582 0  0.4433053064529042 0.4099998228469394 0  0.3987229553706304 0.409999830730253 0  0.3556974938798991 0.4099998386614293 0  0.3141745534466768 0.4099998459283792 0  0.2741016589053709 0.4099998519014623 0  0.2354281852789173 0.409999856172122 0  0.1981052443946795 0.4099998589712288 0  0.1620856869767337 0.4099998606094941 0  0.1273239965797428 0.4099998615205225 0  0.09377624150564214 0.4099998620440058 0  0.0614000205362589 0.4099998623153423 0  0.03015443823659172 0.4099998624560904 0  0.2497468076502589 0.2050254481002335 0  0.2497468076502614 0.1949745518997913 0  0.2469965238547104 0.1829316382398846 0  0.2439893719562853 0.1762315456444156 0  0.2400332131489272 0.1700442312205647 0  0.2352133957031036 0.1645031720431217 0  0.2296339001595098 0.1597279056000148 0  0.223415096052853 0.1558214504599765 0  0.2166911450831787 0.1528680821148258 0  0.2096071067665911 0.1509315148388768 0  0.2023158089916497 0.1500535268708994 0  0.1949745509602655 0.1502530594725891 0  0.187741709704643 0.1515258078024413 0  0.1807733233142878 0.1538443140974737 0  0.1742197246548064 0.1571585598289462 0  0.1682222981387062 0.1613970449060896 0  0.1629104295766614 0.1664683300821017 0  0.1583987148499202 0.1722630096972336 0  0.1547844876852041 0.1786560718886784 0  0.152145719805926 0.1855095955761893 0  0.150539338819514 0.1926757258827526 0  0.1505393390179968 0.2073240019649253 0  0.1521457202048702 0.214490132364052 0  0.1547844882806182 0.2213436562120568 0  0.1583987156452877 0.227736718652026 0  0.1629104305693875 0.2335313986198167 0  0.1682222993334636 0.2386026843046819 0  0.1742197260483807 0.242841170066328 0  0.1807733249111499 0.2461554167475498 0  0.1877417115062943 0.248473924348478 0  0.194974552969628 0.2497466744783945 0  0.2023158112084074 0.2499462094606418 0  0.2096071091977661 0.2490682248186069 0  0.2166911477254305 0.2471316619258902 0  0.2234150989088755 0.2441782997199165 0  0.2296339032200291 0.240271852938632 0  0.2352133989452284 0.2354965983948057 0  0.2400332165158781 0.2299555560237443 0  0.243989375287357 0.2237682686103064 0  0.2469965267114619 0.2170682234348193 0  0.2564580991284902 0.2099999307700832 0  0.2639264020034668 0.2099999069536025 0  0.2713947043091345 0.2099998921345095 0  0.2788630070189263 0.2099998816369095 0  0.2863313090817551 0.2099998734396913 0  0.293799611642745 0.2099998666427422 0  0.301267913679147 0.2099998604538313 0  0.3087362155934089 0.2099998563050036 0  0.3162045180124815 0.2099998522697566 0  0.3236728199132387 0.2099998485294081 0  0.3311411223266022 0.2099998451588847 0  0.3386094242206503 0.2099998420423476 0  0.3460777265341219 0.2099998390678324 0  0.3535460285135143 0.2099998359193356 0  0.3610143305462576 0.2099998337924009 0  0.3684826328576256 0.2099998314665623 0  0.3759509348249273 0.2099998291476142 0  0.3834192371517954 0.2099998269229167 0  0.390887539122608 0.2099998247797467 0  0.3983558414644946 0.209999822738145 0  0.4058241434193242 0.2099998207061354 0  0.4132924457250118 0.2099998186392816 0  0.4207607477097784 0.2099998162956523 0  0.4282290497531221 0.2099998148170661 0  0.4356973520432746 0.2099998130986883 0  0.4431656540531108 0.2099998112945349 0  0.4506339563562183 0.2099998094840058 0  0.4581022583276599 0.209999807697642 0  0.4655705606391589 0.2099998059267875 0  0.4730388625742125 0.2099998041772998 0  0.4805071649006443 0.2099998024387946 0  0.4879754668255178 0.2099998006986483 0  0.4954437691572126 0.2099997989940426 0  0.502912070994178 0.2099997973309856 0  0.5103803733339285 0.2099997956732626 0  0.5178486751897736 0.2099997940809452 0  0.5253169776940373 0.2099997924964059 0  0.532785279452308 0.2099997909535526 0  0.5402535818797498 0.2099997894919648 0  0.5477218835804484 0.2099997881305158 0  0.5551901860856666 0.2099997865243806 0  0.5626584878255978 0.20999978433417 0  0.5701267896664464 0.2099997851580034 0  0.5775950926753548 0.209999785523754 0  0.5850633944696055 0.2099997862737906 0  0.5925316973685796 0.2099997881602912 0  0.6000000004080547 0.204999788892898 0  0.5999999999780482 0.1949997888099836 0  0.5925316986605077 0.1899997867250842 0  0.5850633971140832 0.189999784711821 0  0.5775950943423819 0.1899997837982342 0  0.5701267927484822 0.1899997834478848 0  0.5626584901519268 0.1899997826324284 0  0.5551901874279744 0.1899997847165149 0  0.5477218855059457 0.1899997860701491 0  0.5402535826765792 0.1899997873347984 0  0.5327852807466503 0.1899997887245043 0  0.5253169779367605 0.1899997902169445 0  0.5178486758543137 0.1899997918102589 0  0.5103803731182056 0.1899997934703522 0  0.5029120710758478 0.1899997951913076 0  0.4954437684133164 0.1899997969297832 0  0.4879754663398468 0.189999798688131 0  0.4805071636998834 0.1899998004729003 0  0.4730388615455084 0.1899998022898297 0  0.4655705589397259 0.1899998041424639 0  0.4581022568272396 0.1899998060241926 0  0.4506339542725446 0.1899998079239198 0  0.44316565214467 0.1899998098481292 0  0.435697349584655 0.1899998117953828 0  0.4282290473881772 0.1899998137069685 0  0.4207607448939502 0.1899998153488056 0  0.4132924424598905 0.1899998178453489 0  0.4058241403061956 0.189999820110513 0  0.3983558378469139 0.1899998222668928 0  0.3908875356700974 0.1899998244688763 0  0.3834192332035016 0.1899998267183537 0  0.3759509310113865 0.1899998290281614 0  0.3684826285543968 0.1899998314219592 0  0.361014326401375 0.1899998337558821 0  0.3535460239497826 0.1899998359309806 0  0.3460777214472063 0.1899998391660108 0  0.3386094192932461 0.1899998422848786 0  0.3311411167681487 0.1899998454617222 0  0.3236728146893572 0.1899998488722218 0  0.3162045121600221 0.1899998526140744 0  0.3087362100907847 0.1899998565839457 0  0.3012679075097267 0.1899998606943895 0  0.2937996050589789 0.1899998668649996 0  0.2863313031415162 0.1899998737117132 0  0.2788630007257509 0.1899998818894563 0  0.27139469892989 0.1899998922781672 0  0.2639263967355551 0.189999907083838 0  0.2564580951018861 0.1899999308921433 0  0
[...]
<PointData  Vectors="f_30-0"> 
<DataArray  type="Float64"  Name="f_30-0"  NumberOfComponents="3" format="ascii">0.0000000000000000e+00 0.0000000000000000e+00 0.0000000000000000e+00  0.0000000000000000e+00 0.0000000000000000e+00 0.0000000000000000e+00  0.0000000000000000e+00 0.0000000000000000e+00 0.0000000000000000e+00  0.0000000000000000e+00 0.0000000000000000e+00 0.0000000000000000e+00  6.9408563927105165e-03 -7.7530548374149409e-03 0.0000000000000000e+00  -6.2348205036001064e-03 -6.5379470412198857e-03 0.0000000000000000e+00  0.0000000000000000e+00 0.0000000000000000e+00 0.0000000000000000e+00  0.0000000000000000e+00 0.0000000000000000e+00 0.0000000000000000e+00  0.0000000000000000e+00 0.0000000000000000e+00 0.0000000000000000e+00  0.0000000000000000e+00 0.0000000000000000e+00 0.0000000000000000e+00  3.1604148537057461e-03 -2.8176408100342883e-02 0.0000000000000000e+00  0.0000000000000000e+00 0.0000000000000000e+00 0.0000000000000000e+00  0.0000000000000000e+00 0.0000000000000000e+00 0.0000000000000000e+00  0.0000000000000000e+00 0.0000000000000000e+00 0.0000000000000000e+00  0.0000000000000000e+00 0.0000000000000000e+00 0.0000000000000000e+00  0.0000000000000000e+00 0.0000000000000000e+00 0.0000000000000000e+00  0.0000000000000000e+00 0.0000000000000000e+00 0.0000000000000000e+00  0.0000000000000000e+00 0.0000000000000000e+00 0.0000000000000000e+00  0.0000000000000000e+00 0.0000000000000000e+00 0.0000000000000000e+00  0.0000000000000000e+00 0.0000000000000000e+00 0.0000000000000000e+00  0.0000000000000000e+00 0.0000000000000000e+00 0.0000000000000000e+00  0.0000000000000000e+00 0.0000000000000000e+00 0.0000000000000000e+00  0.0000000000000000e+00 0.0000000000000000e+00 0.0000000000000000e+00  0.0000000000000000e+00 0.0000000000000000e+00 0.0000000000000000e+00  0.0000000000000000e+00 0.0000000000000000e+00 0.0000000000000000e+00  0.0000000000000000e+00 0.0000000000000000e+00 0.0000000000000000e+00  0.0000000000000000e+00 0.0000000000000000e+00 0.0000000000000000e+00  0.0000000000000000e+00 0.0000000000000000e+00 0.0000000000000000e+00  0.0000000000000000e+00 0.0000000000000000e+00 0.0000000000000000e+00  0.0000000000000000e+00 0.0000000000000000e+00 0.0000000000000000e+00  0.0000000000000000e+00 0.0000000000000000e+00 0.0000000000000000e+00  0.0000000000000000e+00 0.0000000000000000e+00 0.0000000000000000e+00  0.0000000000000000e+00 0.0000000000000000e+00 0.0000000000000000e+00  0.0000000000000000e+00 0.0000000000000000e+00 0.0000000000000000e+00  0.0000000000000000e+00 0.0000000000000000e+00 0.0000000000000000e+00  0.0000000000000000e+00 0.0000000000000000e+00 0.0000000000000000e+00  0.0000000000000000e+00 0.0000000000000000e+00 0.0000000000000000e+00  0.0000000000000000e+00 0.0000000000000000e+00 0.0000000000000000e+00  0.0000000000000000e+00 0.0000000000000000e+00 0.0000000000000000e+00  0.0000000000000000e+00 0.0000000000000000e+00 0.0000000000000000e+00  0.0000000000000000e+00 0.0000000000000000e+00 0.0000000000000000e+00  0.0000000000000000e+00 0.0000000000000000e+00 0.0000000000000000e+00  0.0000000000000000e+00 0.0000000000000000e+00 0.0000000000000000e+00  0.0000000000000000e+00 0.0000000000000000e+00 0.0000000000000000e+00  0.0000000000000000e+00 0.0000000000000000e+00 0.0000000000000000e+00  0.0000000000000000e+00 0.0000000000000000e+00 0.0000000000000000e+00  0.0000000000000000e+00 0.0000000000000000e+00 0.0000000000000000e+00  0.0000000000000000e+00 0.0000000000000000e+00 0.0000000000000000e+00  0.0000000000000000e+00 0.0000000000000000e+00 0.0000000000000000e+00  0.0000000000000000e+00 0.0000000000000000e+00 0.0000000000000000e+00  0.0000000000000000e+00 0.0000000000000000e+00 0.0000000000000000e+00  0.0000000000000000e+00 0.0000000000000000e+00 0.0000000000000000e+00  0.0000000000000000e+00 0.0000000000000000e+00 0.0000000000000000e+00  0.0000000000000000e+00 0.0000000000000000e+00 0.0000000000000000e+00  0.0000000000000000e+00 0.0000000000000000e+00 0.0000000000000000e+00  0.0000000000000000e+00 0.0000000000000000e+00 0.0000000000000000e+00  0.0000000000000000e+00 0.0000000000000000e+00 0.0000000000000000e+00  0.0000000000000000e+00 0.0000000000000000e+00 0.0000000000000000e+00  0.0000000000000000e+00 0.0000000000000000e+00 0.0000000000000000e+00  0.0000000000000000e+00 0.0000000000000000e+00 0.0000000000000000e+00  0.0000000000000000e+00 0.0000000000000000e+00 0.0000000000000000e+00  0.0000000000000000e+00 0.0000000000000000e+00 0.0000000000000000e+00  8.0538170547748133e-10 4.1442831550803445e-10 0.0000000000000000e+00  3.6186202581875063e-12 5.1402149745893974e-10 0.0000000000000000e+00  -1.0682679237135642e-09 4.1871277749914062e-10 0.0000000000000000e+00  0.0000000000000000e+00 0.0000000000000000e+00 0.0000000000000000e+00  0.0000000000000000e+00 0.0000000000000000e+00 0.0000000000000000e+00  0.0000000000000000e+00 0.0000000000000000e+00 0.0000000000000000e+00  0.0000000000000000e+00 0.0000000000000000e+00 0.0000000000000000e+00  0.0000000000000000e+00 0.0000000000000000e+00 0.0000000000000000e+00  0.0000000000000000e+00 0.0000000000000000e+00 0.0000000000000000e+00  0.0000000000000000e+00 0.0000000000000000e+00 0.0000000000000000e+00  0.0000000000000000e+00 0.0000000000000000e+00 0.0000000000000000e+00  0.0000000000000000e+00 0.0000000000000000e+00 0.0000000000000000e+00  0.0000000000000000e+00 0.0000000000000000e+00 0.0000000000000000e+00  0.0000000000000000e+00 0.0000000000000000e+00 0.0000000000000000e+00  0.0000000000000000e+00 0.0000000000000000e+00 0.0000000000000000e+00  0.0000000000000000e+00 0.0000000000000000e+00 0.0000000000000000e+00  0.0000000000000000e+00 0.0000000000000000e+00 0.0000000000000000e+00  0.0000000000000000e+00 0.0000000000000000e+00 0.0000000000000000e+00  0.0000000000000000e+00 0.0000000000000000e+00 0.0000000000000000e+00  0.0000000000000000e+00 0.0000000000000000e+00 0.0000000000000000e+00  0.0000000000000000e+00 0.0000000000000000e+00 0.0000000000000000e+00  0.0000000000000000e+00 0.0000000000000000e+00 0.0000000000000000e+00  0.0000000000000000e+00 0.0000000000000000e+00 0.0000000000000000e+00  0.0000000000000000e+00 0.0000000000000000e+00 0.0000000000000000e+00  0.0000000000000000e+00 0.0000000000000000e+00 0.0000000000000000e+00  0.0000000000000000e+00 0.0000000000000000e+00 0.0000000000000000e+00  0.0000000000000000e+00 0.0000000000000000e+00 0.0000000000000000e+00  0.0000000000000000e+00 0.0000000000000000e+00 0.0000000000000000e+00  0.0000000000000000e+00 0.0000000000000000e+00 0.0000000000000000e+00  0.0000000000000000e+00 0.0000000000000000e+00 0.0000000000000000e+00  0.0000000000000000e+00 0.0000000000000000e+00 0.0000000000000000e+00  0.0000000000000000e+00 0.0000000000000000e+00 0.0000000000000000e+00  0.0000000000000000e+00 0.0000000000000000e+00 0.0000000000000000e+00  0.0000000000000000e+00 0.0000000000000000e+00 0.0000000000000000e+00  0.0000000000000000e+00 0.0000000000000000e+00 0.0000000000000000e+00  0.0000000000000000e+00 0.0000000000000000e+00 0.0000000000000000e+00  0.0000000000000000e+00 0.0000000000000000e+00 0.0000000000000000e+00  0.0000000000000000e+00 0.0000000000000000e+00 0.0000000000000000e+00  0.0000000000000000e+00 0.0000000000000000e+00 0.0000000000000000e+00  0.0000000000000000e+00 0.0000000000000000e+00 0.0000000000000000e+00  0.0000000000000000e+00 0.0000000000000000e+00 0.0000000000000000e+00  0.0000000000000000e+00 0.0000000000000000e+00 0.0000000000000000e+00  0.0000000000000000e+00 0.0000000000000000e+00 0.0000000000000000e+00  0.0000000000000000e+00 0.0000000000000000e+00 0.0000000000000000e+00  0.0000000000000000e+00 0.0000000000000000e+00 0.0000000000000000e+00  0.0000000000000000e+00 0.0000000000000000e+00 0.0000000000000000e+00  0.0000000000000000e+00 0.0000000000000000e+00 0.0000000000000000e+00  0.0000000000000000e+00 0.0000000000000000e+00 0.0000000000000000e+00  0.0000000000000000e+00 0.0000000000000000e+00 0.0000000000000000e+00  0.0000000000000000e+00 0.0000000000000000e+00 0.0000000000000000e+00  0.0000000000000000e+00 0.0000000000000000e+00 0.0000000000000000e+00  0.0000000000000000e+00 0.0000000000000000e+00 0.0000000000000000e+00  0.0000000000000000e+00 0.0000000000000000e+00 0.0000000000000000e+00  0.0000000000000000e+00 0.0000000000000000e+00 0.0000000000000000e+00  0.0000000000000000e+00 0.0000000000000000e+00 0.0000000000000000e+00  0.0000000000000000e+00 0.0000000000000000e+00 0.0000000000000000e+00  0.0000000000000000e+00 0.0000000000000000e+00 0.0000000000000000e+00  0.0000000000000000e+00 0.0000000000000000e+00 0.0000000000000000e+00  0.0000000000000000e+00 0.0000000000000000e+00 0.0000000000000000e+00  0.0000000000000000e+00 0.0000000000000000e+00 0.0000000000000000e+00  0.0000000000000000e+00 0.0000000000000000e+00 0.0000000000000000e+00  0.0000000000000000e+00 0.0000000000000000e+00 0.0000000000000000e+00  0.0000000000000000e+00 0.0000000000000000e+00 0.0000000000000000e+00  0.0000000000000000e+00 0.0000000000000000e+00 0.0000000000000000e+00  0.0000000000000000e+00 0.0000000000000000e+00 0.0000000000000000e+00  0.0000000000000000e+00 0.0000000000000000e+00 0.0000000000000000e+00  0.0000000000000000e+00 0.0000000000000000e+00 0.0000000000000000e+00  0.0000000000000000e+00 0.0000000000000000e+00 0.0000000000000000e+00  0.0000000000000000e+00 0.0000000000000000e+00 0.0000000000000000e+00  0.0000000000000000e+00 0.0000000000000000e+00 0.0000000000000000e+00  0.0000000000000000e+00 0.0000000000000000e+00 0.0000000000000000e+00  0.0000000000000000e+00 0.0000000000000000e+00 0.0000000000000000e+00  0.0000000000000000e+00 0.0000000000000000e+00 0.0000000000000000e+00  0.0000000000000000e+00 0.0000000000000000e+00 0.0000000000000000e+00  0.0000000000000000e+00 0.0000000000000000e+00 0.0000000000000000e+00  0.0000000000000000e+00 0.0000000000000000e+00 0.0000000000000000e+00  0.0000000000000000e+00 0.0000000000000000e+00 0.0000000000000000e+00  0.0000000000000000e+00 0.0000000000000000e+00 0.0000000000000000e+00  0.0000000000000000e+00 0.0000000000000000e+00 0.0000000000000000e+00  0.0000000000000000e+00 0.0000000000000000e+00 0.0000000000000000e+00  0.0000000000000000e+00 0.0000000000000000e+00 0.0000000000000000e+00  1.1472121447074074e-02 1.0578123845346298e-02 0.0000000000000000e+00  8.4600682302656636e-03 -8.8007905217797593e-03 0.0000000000000000e+00  3.2827428025911263e-03 -1.7634216117252677e-02 0.0000000000000000e+00  6.3344470623409232e-03 -2.2340410485859347e-02 0.0000000000000000e+00  1.6423253075299842e-03 -2.2480448969253747e-02 0.0000000000000000e+00  5.1307912183901098e-03 -2.4967858331483513e-02 0.0000000000000000e+00  2.4070939004096235e-03 -2.2050593911813875e-02 0.0000000000000000e+00  -9.4775656881846695e-04 -2.2942344801479012e-02 0.0000000000000000e+00  4.0549117965597284e-03 -2.0162112730577011e-02 0.0000000000000000e+00  -1.0505333522517690e-03 -2.0329335905225877e-02 0.0000000000000000e+00  3.4672662619128127e-03 -1.9199040606203800e-02 0.0000000000000000e+00  -9.2086435095385503e-04 -1.8477275162527940e-02 0.0000000000000000e+00  3.4271872766362603e-03 -1.8237222472843394e-02 0.0000000000000000e+00  7.3092886098301543e-05 -1.5704676106138168e-02 0.0000000000000000e+00  -2.6663431133940594e-04 -1.6408558349142326e-02 0.0000000000000000e+00  1.3096888062349170e-03 -1.5385029936162871e-02 0.0000000000000000e+00  -3.8904361910343859e-04 -1.5871253430834325e-02 0.0000000000000000e+00  1.5707173278801249e-03 -1.5279708037984223e-02 0.0000000000000000e+00  -6.9391087258622935e-04 -1.5413899342773469e-02 0.0000000000000000e+00  2.0184687060487653e-03 -1.5411509857810528e-02 0.0000000000000000e+00  -1.1800837823964852e-03 -1.5396896473761213e-02 0.0000000000000000e+00  2.7923174543687482e-03 -1.5404193928326409e-02 0.0000000000000000e+00  -4.0313687163250495e-04 -1.3959323415336875e-02 0.0000000000000000e+00  -9.2680048637065141e-04 -1.5766173632015476e-02 0.0000000000000000e+00  1.0711917180593136e-03 -1.6717197009672460e-02 0.0000000000000000e+00  -4.6455159205093731e-04 -1.7166386574055413e-02 0.0000000000000000e+00  1.2028055480552823e-03 -1.8086885657504055e-02 0.0000000000000000e+00  -1.4159411555416473e-03 -1.9230365555839228e-02 0.0000000000000000e+00  2.3474666657647535e-03 -1.9766731598715229e-02 0.0000000000000000e+00  -2.3310759677343681e-03 -2.0497071836290355e-02 0.0000000000000000e+00  2.7991444137154178e-03 -2.1789902503478183e-02 0.0000000000000000e+00  -2.0889690544044427e-03 -2.2463659049222602e-02 0.0000000000000000e+00  2.2861737176484613e-03 -2.5302565471956362e-02 0.0000000000000000e+00  -2.4300069254234221e-03 -2.6338261779366375e-02 0.0000000000000000e+00  2.4917766717489219e-03 -2.7491209672151139e-02 0.0000000000000000e+00  -3.3998012325300846e-03 -2.8054328687337149e-02 0.0000000000000000e+00  3.4976870595155316e-03 -3.0795493635394629e-02 0.0000000000000000e+00  -4.6473515441528088e-03 -3.3772357575961698e-02 0.0000000000000000e+00  4.0364699959587295e-03 -3.7487019640674565e-02 0.0000000000000000e+00  -5.0057175419364608e-03 -3.7483969027252324e-02 0.0000000000000000e+00  3.0054833652842857e-03 -4.2283264875276179e-02 0.0000000000000000e+00  4.0180590721662060e-04 -4.0703537518374952e-02 0.0000000000000000e+00  -8.6451187180219772e-03 -4.7751920625187863e-02 0.0000000000000000e+00  3.0357100291125930e-03 -4.8894101422641230e-02 0.0000000000000000e+00  -8.5123486213514437e-03 -5.2366298792666376e-02 0.0000000000000000e+00  2.9228808467991999e-03 -3.9283337764419515e-02 0.0000000000000000e+00  3.9992902807588129e-03 -2.3180210683820972e-02 0.0000000000000000e+00  -3.9404700886680596e-03 -1.9590871746502356e-02 0.0000000000000000e+00  1.2925254903276312e-03 -3.8714597678122187e-02 0.0000000000000000e+00  8.2476799205581462e-03 -5.0087109145007531e-02 0.0000000000000000e+00  -1.8018324301115835e-03 -4.8970786028729743e-02 0.0000000000000000e+00  7.8840539735541317e-03 -4.9087778665327923e-02 0.0000000000000000e+00  9.3042461912502957e-04 -3.9579812659371057e-02 0.0000000000000000e+00  -3.8475531376228299e-03 -4.1331017281388938e-02 0.0000000000000000e+00  5.2312429046572316e-03 -3.5017871774417460e-02 0.0000000000000000e+00  -3.9686261405651015e-03 -3.4317159405922087e-02 0.0000000000000000e+00  4.2025213084644119e-03 -3.2038232578112023e-02 0.0000000000000000e+00  -3.2915546261820731e-03 -3.1108071469149186e-02 0.0000000000000000e+00  3.2315826042475584e-03 -2.8033357849351258e-02 0.0000000000000000e+00  -3.0912065112223431e-03 -2.6392456779305871e-02 0.0000000000000000e+00  2.8058640951080065e-03 -2.3259758383024944e-02 0.0000000000000000e+00  -2.9678723153765507e-03 -2.2326980093917453e-02 0.0000000000000000e+00  2.2487663620324267e-03 -2.1257803967709807e-02 0.0000000000000000e+00  -2.6048823243499386e-03 -2.0847739428276668e-02 0.0000000000000000e+00  1.8671424576274260e-03 -1.9590707236257426e-02 0.0000000000000000e+00  -2.4713449106545317e-03 -1.8721725175049039e-02 0.0000000000000000e+00  1.7106516371348402e-03 -1.7235109438745708e-02 0.0000000000000000e+00  -2.4123355978414624e-03 -1.6793168850425207e-02 0.0000000000000000e+00  1.4750067984270351e-03 -1.6347844404496485e-02 0.0000000000000000e+00  -2.1551830153818609e-03 -1.5814682007012387e-02 0.0000000000000000e+00  1.4780378028293312e-03 -1.5780809084019465e-02 0.0000000000000000e+00  -8.5707577262221534e-04 -1.4105338774498493e-02 0.0000000000000000e+00  -1.8667082677624293e-03 -1.5278568363122353e-02 0.0000000000000000e+00  2.1300820981890063e-04 -1.4942961819659333e-02 0.0000000000000000e+00  -1.7962404817617969e-03 -1.5858367387185164e-02 0.0000000000000000e+00  4.1514280576605394e-04 -1.6538833864130211e-02 0.0000000000000000e+00  -1.7204602908877742e-03 -1.6699838037456189e-02 0.0000000000000000e+00  4.0532333100009796e-04 -1.6701833906902292e-02 0.0000000000000000e+00  -1.5646472238431664e-03 -1.6044865662217717e-02 0.0000000000000000e+00  4.2510288981672015e-04 -1.6331307905840812e-02 0.0000000000000000e+00  -1.3357529821867115e-04 -1.5790572783841699e-02 0.0000000000000000e+00  -3.6171837355040868e-03 -1.8356987722755180e-02 0.0000000000000000e+00  9.6963734219422638e-04 -1.8946594430292677e-02 0.0000000000000000e+00  -3.8865236319778674e-03 -1.9939354242468323e-02 0.0000000000000000e+00  1.3355791683989323e-03 -2.1127637108779688e-02 0.0000000000000000e+00  -4.3913739238470983e-03 -2.1187719263056990e-02 0.0000000000000000e+00  1.1767164126896021e-03 -2.2853045057965943e-02 0.0000000000000000e+00  -2.4201550362733548e-03 -2.2082511030027719e-02 0.0000000000000000e+00  -5.0238568412608086e-03 -2.5061298625264346e-02 0.0000000000000000e+00  -1.4086255818443224e-03 -2.2735040029346069e-02 0.0000000000000000e+00  -6.7116492795784811e-03 -2.2774220217597719e-02 0.0000000000000000e+00  -3.4679191253878991e-03 -1.7207796630599893e-02 0.0000000000000000e+00  -8.3256487667626635e-03 -8.8389817127645601e-03 0.0000000000000000e+00  -1.1614937547868201e-02 1.0347163146614758e-02 0.0000000000000000e+00  6.4689461304811316e-05 6.1376193616654376e-03 0.0000000000000000e+00  2.9140356874317617e-04 3.1759058862633818e-02 0.0000000000000000e+00  -7.7176398005946692e-04 3.7265200002633676e-02 0.0000000000000000e+00  1.0905122988261820e-03 3.1687252747628104e-02 0.0000000000000000e+00  3.9308176200559321e-04 1.6752271424384759e-02 0.0000000000000000e+00  1.0316553962497992e-04 2.7485523872368092e-02 0.0000000000000000e+00  -2.0622800158100080e-04 1.8932129590724090e-02 0.0000000000000000e+00  3.6368984631934995e-05 2.3912847849443017e-02 0.0000000000000000e+00  5.8113445822099562e-04 1.7804592512793503e-02 0.0000000000000000e+00  3.1884586420163082e-05 1.6235824389240958e-02 0.0000000000000000e+00  1.2617366882303630e-05 2.0692982199886630e-02 0.0000000000000000e+00  3.8776954086496902e-04 1.3002586215326760e-02 0.0000000000000000e+00  6.0368544926758633e-05 1.6406925161867595e-02 0.0000000000000000e+00  -3.8591319302942463e-04 1.4156577017391344e-02 0.0000000000000000e+00  -8.6542358711772623e-06 1.2854327464461440e-02 0.0000000000000000e+00  -1.0291592469140898e-05 1.4974447844251039e-02 0.0000000000000000e+00  9.3068785015824339e-06 1.8242304092948934e-02 0.0000000000000000e+00  -1.9521380148627260e-04 1.2648117936899626e-02 0.0000000000000000e+00  6.6279601997253838e-05 1.3698913679252526e-02 0.0000000000000000e+00  -1.0255239024796653e-04 1.2012170408952715e-02 0.0000000000000000e+00  -3.0086326852214192e-04 1.2637474726090751e-02 0.0000000000000000e+00  1.4172537316330336e-04 9.1259231534364018e-03 0.0000000000000000e+00  -2.9059149755376048e-06 9.9055260043056127e-03 0.0000000000000000e+00  -1.0229167385575052e-06 2.7668025363978669e-02 0.0000000000000000e+00  2.1143427572388591e-05 1.3876816769121220e-02 0.0000000000000000e+00  8.1785637288379247e-04 3.1198722228536584e-02 0.0000000000000000e+00  -3.8258714137406609e-03 1.0718656838363583e-02 0.0000000000000000e+00  -1.2710873250864506e-03 1.7342704113194923e-02 0.0000000000000000e+00  -2.1004366636734641e-03 2.0547873875325605e-02 0.0000000000000000e+00  2.0357527602255529e-04 1.6574890762247160e-02 0.0000000000000000e+00  -1.1772587517491502e-03 1.1771146492959066e-02 0.0000000000000000e+00  -6.1734477629458615e-04 1.1778905601420270e-02 0.0000000000000000e+00  -7.7939921919875687e-04 1.5096842337100333e-02 0.0000000000000000e+00  -4.7706120420750641e-04 8.9498123969488225e-03 0.0000000000000000e+00  -2.2414001844737140e-04 1.0634285946493516e-02 0.0000000000000000e+00  -4.6323133573335489e-04 1.0220122032703090e-02 0.0000000000000000e+00  -1.2968459147778697e-04 9.0213980549409215e-03 0.0000000000000000e+00  -2.7796032155445732e-04 1.0085583959348941e-02 0.0000000000000000e+00  -7.1946507545947371e-04 1.3525132538119483e-02 0.0000000000000000e+00  7.3807889671804550e-05 9.5330420682887950e-03 0.0000000000000000e+00  -3.6583150609371042e-05 8.9278246089778759e-03 0.0000000000000000e+00  1.2056874352307145e-03 -3.0062061248354636e-03 0.0000000000000000e+00  -1.4458560364661545e-03 -2.6161459683508338e-03 0.0000000000000000e+00  -9.6203531384849023e-03 2.2713229170061990e-02 0.0000000000000000e+00  4.0041581227964439e-03 1.1131178627880666e-02 0.