<?xml version="1.0"?>
<VTKFile type="UnstructuredGrid"  version="0.1"  >
<UnstructuredGrid>
<Piece  NumberOfPoints="1419" NumberOfCells="2698">
<Points>
<DataArray  type="Float64"  NumberOfComponents="3"  format="ascii">7.121455684767959e-08 -2.17071732267931e-06 0  9.645529889465974e-08 0.4099978197303894 0  2.500000195356519 -3.256981469579083e-06 0  2.500000195356548 0.409996743018558 0  0.6000002178763458 0.1899966401600868 0  0.600000244833058 0.2099966389130229 0  0.25 0.2 0  0.1500000825404653 0.1999978453087574 0  0.2489897948556636 0.21 0  0.2489897948556636 0.19 0  0.6000002380826445 0.1999966277591293 0  9.615106206367387e-08 0.3807121061118052 0  9.528732607895459e-08 0.3514263936401678 0  9.384768690534755e-08 0.3221406820438803 0  9.1851880381947e-08 0.2928549707380039 0  8.941054250075342e-08 0.2635692592741266 0  8.662356953409851e-08 0.2342835473524845 0  8.361444188302691e-08 0.2049978345230537 0  8.062157145024268e-08 0.1757121208656923 0  7.786172534993936e-08 0.1464264062985507 0  7.546622592015352e-08 0.1171406909935217 0  7.361533491379126e-08 0.08785497522811749 0  7.226258445818981e-08 0.05856925940461903 0  7.146687565659851e-08 0.02928354396882141 0  0.03015450855148195 -2.17116801481379e-06 0  0.06140008995092534 -2.172799757745193e-06 0  0.09377630937392253 -2.176495377896713e-06 0  0.1273240623186054 -2.183796711467591e-06 0  0.162085750222252 -2.197476982697903e-06 0  0.1981053053061627 -2.224362580113759e-06 0  0.2354282450301138 -2.27474283292653e-06 0  0.2741017197809695 -2.355488321695693e-06 0  0.3141746185408619 -2.467905438665948e-06 0  0.3556975676366582 -2.608263482331189e-06 0  0.3987230419176487 -2.759869357920638e-06 0  0.4433054097354283 -2.904663499156453e-06 0  0.48950099933861 -3.030247469039963e-06 0  0.5373682038600934 -3.125910249322441e-06 0  0.5869674944118932 -3.18896803705367e-06 0  0.6383615411122218 -3.226837320785359e-06 0  0.6916152961080935 -3.245264082625821e-06 0  0.7467960471709623 -3.253272491408788e-06 0  0.8039735372187241 -3.256482831838895e-06 0  0.863220006653019 -3.257513484306284e-06 0  0.9246103264926653 -3.257660937908985e-06 0  0.9882220755205292 -3.257523609014499e-06 0  1.054135640375677 -3.257360817005655e-06 0  1.122434295578768 -3.257226221952662e-06 0  1.19320437231547 -3.257128794850559e-06 0  1.266535285134291 -3.257066666125293e-06 0  1.342519711345777 -3.257030104567539e-06 0  1.421253643829079 -3.257008446217449e-06 0  1.502836584446297 -3.256995735295079e-06 0  1.587371635106809 -3.256988888070807e-06 0  1.674965614129528 -3.256985263272512e-06 0  1.765729197179919 -3.256983333812486e-06 0  1.859777104235548 -3.256982385191277e-06 0  1.957228172843099 -3.256981887750588e-06 0  2.058205525226241 -3.256981661284919e-06 0  2.162836786546382 -3.256981545706645e-06 0  2.271254152647351 -3.256981496730656e-06 0  2.383594642159935 -3.256981475770547e-06 0  2.500000195356521 0.1024967430182955 0  2.500000195356534 0.2049967430180183 0  2.500000195356545 0.3074967430182723 0  2.383594642160213 0.409996743018564 0  2.271254152647895 0.4099967430185857 0  2.162836786547238 0.4099967430186369 0  2.058205525227542 0.4099967430187471 0  1.95722817284509 0.4099967430189713 0  1.859777104238869 0.409996743019493 0  1.765729197185561 0.4099967430204388 0  1.674965614139825 0.4099967430224483 0  1.587371635125572 0.4099967430260837 0  1.50283658448099 0.4099967430330093 0  1.421253643893842 0.4099967430463973 0  1.342519711461625 0.4099967430691445 0  1.266535285337898 0.4099967431089273 0  1.193204372676334 0.4099967431838502 0  1.122434296205058 0.409996743318231 0  1.054135641413156 0.4099967435429646 0  0.9882220772547642 0.4099967439880838 0  0.9246103292903985 0.4099967448056652 0  0.8632200111378177 0.4099967463719053 0  0.8039735442392443 0.4099967495079052 0  0.7467960579124255 0.4099967558105448 0  0.691615311922485 0.409996768134258 0  0.6383615634555793 0.4099967922894263 0  0.5869675247347318 0.4099968342416138 0  0.5373682425013073 0.4099968999518121 0  0.4895010460479412 0.4099969949876161 0  0.4433054638548929 0.4099971148840685 0  0.3987231017748886 0.4099972510786021 0  0.3556976306251084 0.409997391758292 0  0.3141746817215863 0.4099975222548081 0  0.2741017797115691 0.4099976297533742 0  0.2354282996683356 0.4099977064752118 0  0.1981053533787739 0.4099977566570781 0  0.1620857916015043 0.4099977859931022 0  0.1273240978129846 0.4099978023091625 0  0.09377634023186156 0.4099978116947792 0  0.06140011760517244 0.4099978165678656 0  0.03015453433579643 0.4099978190985258 0  0.2497468076502589 0.2050254481002335 0  0.2497468076502614 0.1949745518997913 0  0.2469965312809052 0.1829306644398472 0  0.2439893891786378 0.1762302204665995 0  0.2400332387170202 0.1700426975998184 0  0.2352134281217226 0.1645015054605153 0  0.2296339384381208 0.1597261437850862 0  0.2234151393595528 0.155819620076159 0  0.2166911927531254 0.1528662017890308 0  0.2096071582197031 0.1509295984303421 0  0.2023158639534669 0.150051582604067 0  0.1949746090350372 0.1502510952571855 0  0.1877417707075686 0.1515238284653512 0  0.1807733870077422 0.1538423238405223 0  0.1742197909489993 0.1571565612934398 0  0.1682223668768911 0.1613950403867623 0  0.1629105007318263 0.1664663209900442 0  0.1583987883191716 0.1722609972834769 0  0.1547845634639894 0.1786540569752583 0  0.1521457978203717 0.185507578898439 0  0.1505394190956055 0.1926737079712566 0  0.1505394236755495 0.2073219831712787 0  0.1521458070251012 0.2144881138881487 0  0.1547845771948358 0.2213416386608031 0  0.1583988066485586 0.2277347027635336 0  0.1629105235867948 0.2335293853146607 0  0.1682223943441928 0.2386006749429661 0  0.1742198229316932 0.2428391661705966 0  0.1807734235891672 0.246153420448509 0  0.1877418118589797 0.2484719389324625 0  0.1949746547880525 0.2497447039517218 0  0.2023159142537555 0.2499442586016818 0  0.2096072131700427 0.2490663012872038 0  0.2166912521794764 0.2471297747793102 0  0.2234152032188798 0.2441764635287961 0  0.2296340065507424 0.2402700844750126 0  0.2352134998904157 0.2354949263231675 0  0.2400333130135895 0.2299540172625697 0  0.2439894627898314 0.2237669373184499 0  0.2469965950161251 0.2170672448039828 0  0.2564581777398658 0.2099989881907976 0  0.2639265027891718 0.2099986490616003 0  0.2713948276402338 0.2099984296186914 0  0.2788631320377571 0.2099982580086163 0  0.2863314394187129 0.2099981132440496 0  0.2937997404962169 0.2099979869296043 0  0.3012680434812858 0.2099978738125326 0  0.3087363445271419 0.2099977777893746 0  0.3162046507205574 0.2099976880955385 0  0.3236729511042589 0.209997605478604 0  0.331141259382559 0.2099975292511956 0  0.3386095593242015 0.2099974589392809 0  0.3460778674133354 0.209997390417398 0  0.3535461684184631 0.2099973169833246 0  0.3610144687655202 0.2099972764386744 0  0.3684827744447953 0.2099972304201324 0  0.3759510707182847 0.2099971820110792 0  0.3834193748611037 0.2099971364238772 0  0.3908876697279631 0.2099970916725666 0  0.3983559733751703 0.2099970485255747 0  0.4058242667632108 0.2099970058785512 0  0.4132925695267361 0.2099969594664644 0  0.4207608618742434 0.2099969030049776 0  0.4282291603229728 0.2099968800192349 0  0.4356974658944522 0.2099968461775044 0  0.4431657645240533 0.2099968133600961 0  0.4506340738705595 0.2099967767973347 0  0.4581023748671068 0.2099967456348109 0  0.4655706887600448 0.2099967147293003 0  0.4730389917289087 0.2099966865147367 0  0.4805073086548966 0.2099966614975609 0  0.4879756152129676 0.209996641019245 0  0.4954439398963319 0.2099966063375226 0  0.5029122499250129 0.2099965900482032 0  0.5103805740729929 0.2099965925166739 0  0.5178488806815387 0.2099965837933152 0  0.525317199897542 0.2099965744369 0  0.5327855057607975 0.2099965635372262 0  0.5402538260801046 0.209996558434576 0  0.5477221331026477 0.2099965574771496 0  0.555190451513901 0.2099965574518049 0  0.5626587587806527 0.2099965446806705 0  0.570127055740773 0.2099965742227722 0  0.5775953631701217 0.2099965942907441 0  0.5850636598112027 0.2099966004529621 0  0.5925319591667667 0.2099966160212995 0  0.6000002466241805 0.2049966296771578 0  0.6000002248232993 0.1949966343780253 0  0.5925319161988183 0.1899966214988076 0  0.5850636189310172 0.1899965986103122 0  0.5775953090536284 0.1899965780093835 0  0.5701270076940093 0.1899965581108811 0  0.5626586990056145 0.1899965306970988 0  0.5551903866348831 0.1899965374299816 0  0.5477220846119436 0.1899965339611491 0  0.5402537671645511 0.1899965315173047 0  0.5327854645880306 0.1899965335163576 0  0.5253171451074626 0.1899965382244182 0  0.5178488405670221 0.1899965442701332 0  0.5103805217637511 0.1899965504302014 0  0.5029122171782838 0.1899965590818783 0  0.4954438921110013 0.1899965747158804 0  0.4879755873126219 0.189996597516101 0  0.4805072675841309 0.1899966240303443 0  0.4730389632238112 0.1899966517350477 0  0.4655706444462927 0.1899966814563057 0  0.4581023428375529 0.1899967134748751 0  0.450634028017567 0.1899967485407699 0  0.4431657271663178 0.1899967856901373 0  0.4356974135321426 0.1899968242478064 0  0.4282291115707523 0.1899968614266588 0  0.4207608013593162 0.1899968900102763 0  0.4132924940335261 0.1899969466449521 0  0.4058241942103328 0.189996997148648 0  0.39835588623457 0.189997043441181 0  0.3908875852268187 0.1899970900900046 0  0.3834192768529913 0.189997136865329 0  0.3759509750512998 0.1899971844052568 0  0.3684826670997426 0.1899972331566994 0  0.3610143663066199 0.1899972800293024 0  0.3535460581416867 0.1899973234515408 0  0.3460777487780368 0.1899973958986718 0  0.3386094463196445 0.1899974658672108 0  0.3311411373723448 0.1899975371278719 0  0.3236728365996615 0.1899976129948548 0  0.3162045306000872 0.1899976953292847 0  0.308736230700037 0.1899977833507471 0  0.301267926513389 0.1899978783701283 0  0.293799624429284 0.1899979912559278 0  0.2863313191021483 0.189998116781572 0  0.2788630160776135 0.1899982592205467 0  0.2713946983872099 0.1899984355481883 0  0.2639263913552381 0.1899986653767263 0  0.2564580827439927 0.1899989949
[...]
<PointData  Vectors="f_30-0"> 
<DataArray  type="Float64"  Name="f_30-0"  NumberOfComponents="3" format="ascii">0.0000000000000000e+00 0.0000000000000000e+00 0.0000000000000000e+00  0.0000000000000000e+00 0.0000000000000000e+00 0.0000000000000000e+00  0.0000000000000000e+00 0.0000000000000000e+00 0.0000000000000000e+00  0.0000000000000000e+00 0.0000000000000000e+00 0.0000000000000000e+00  4.1372596257065831e-02 -1.0637853336870202e-01 0.0000000000000000e+00  9.8676761759456041e-02 -9.7706540371674852e-02 0.0000000000000000e+00  0.0000000000000000e+00 0.0000000000000000e+00 0.0000000000000000e+00  0.0000000000000000e+00 0.0000000000000000e+00 0.0000000000000000e+00  0.0000000000000000e+00 0.0000000000000000e+00 0.0000000000000000e+00  0.0000000000000000e+00 0.0000000000000000e+00 0.0000000000000000e+00  1.6182354823661829e-01 -2.2535831574598905e-01 0.0000000000000000e+00  0.0000000000000000e+00 0.0000000000000000e+00 0.0000000000000000e+00  0.0000000000000000e+00 0.0000000000000000e+00 0.0000000000000000e+00  0.0000000000000000e+00 0.0000000000000000e+00 0.0000000000000000e+00  0.0000000000000000e+00 0.0000000000000000e+00 0.0000000000000000e+00  0.0000000000000000e+00 0.0000000000000000e+00 0.0000000000000000e+00  0.0000000000000000e+00 0.0000000000000000e+00 0.0000000000000000e+00  0.0000000000000000e+00 0.0000000000000000e+00 0.0000000000000000e+00  0.0000000000000000e+00 0.0000000000000000e+00 0.0000000000000000e+00  0.0000000000000000e+00 0.0000000000000000e+00 0.0000000000000000e+00  0.0000000000000000e+00 0.0000000000000000e+00 0.0000000000000000e+00  0.0000000000000000e+00 0.0000000000000000e+00 0.0000000000000000e+00  0.0000000000000000e+00 0.0000000000000000e+00 0.0000000000000000e+00  0.0000000000000000e+00 0.0000000000000000e+00 0.0000000000000000e+00  0.0000000000000000e+00 0.0000000000000000e+00 0.0000000000000000e+00  0.0000000000000000e+00 0.0000000000000000e+00 0.0000000000000000e+00  0.0000000000000000e+00 0.0000000000000000e+00 0.0000000000000000e+00  0.0000000000000000e+00 0.0000000000000000e+00 0.0000000000000000e+00  0.0000000000000000e+00 0.0000000000000000e+00 0.0000000000000000e+00  0.0000000000000000e+00 0.0000000000000000e+00 0.0000000000000000e+00  0.0000000000000000e+00 0.0000000000000000e+00 0.0000000000000000e+00  0.0000000000000000e+00 0.0000000000000000e+00 0.0000000000000000e+00  0.0000000000000000e+00 0.0000000000000000e+00 0.0000000000000000e+00  0.0000000000000000e+00 0.0000000000000000e+00 0.0000000000000000e+00  0.0000000000000000e+00 0.0000000000000000e+00 0.0000000000000000e+00  0.0000000000000000e+00 0.0000000000000000e+00 0.0000000000000000e+00  0.0000000000000000e+00 0.0000000000000000e+00 0.0000000000000000e+00  0.0000000000000000e+00 0.0000000000000000e+00 0.0000000000000000e+00  0.0000000000000000e+00 0.0000000000000000e+00 0.0000000000000000e+00  0.0000000000000000e+00 0.0000000000000000e+00 0.0000000000000000e+00  0.0000000000000000e+00 0.0000000000000000e+00 0.0000000000000000e+00  0.0000000000000000e+00 0.0000000000000000e+00 0.0000000000000000e+00  0.0000000000000000e+00 0.0000000000000000e+00 0.0000000000000000e+00  0.0000000000000000e+00 0.0000000000000000e+00 0.0000000000000000e+00  0.0000000000000000e+00 0.0000000000000000e+00 0.0000000000000000e+00  0.0000000000000000e+00 0.0000000000000000e+00 0.0000000000000000e+00  0.0000000000000000e+00 0.0000000000000000e+00 0.0000000000000000e+00  0.0000000000000000e+00 0.0000000000000000e+00 0.0000000000000000e+00  0.0000000000000000e+00 0.0000000000000000e+00 0.0000000000000000e+00  0.0000000000000000e+00 0.0000000000000000e+00 0.0000000000000000e+00  0.0000000000000000e+00 0.0000000000000000e+00 0.0000000000000000e+00  0.0000000000000000e+00 0.0000000000000000e+00 0.0000000000000000e+00  0.0000000000000000e+00 0.0000000000000000e+00 0.0000000000000000e+00  0.0000000000000000e+00 0.0000000000000000e+00 0.0000000000000000e+00  0.0000000000000000e+00 0.0000000000000000e+00 0.0000000000000000e+00  0.0000000000000000e+00 0.0000000000000000e+00 0.0000000000000000e+00  0.0000000000000000e+00 0.0000000000000000e+00 0.0000000000000000e+00  0.0000000000000000e+00 0.0000000000000000e+00 0.0000000000000000e+00  0.0000000000000000e+00 0.0000000000000000e+00 0.0000000000000000e+00  0.0000000000000000e+00 0.0000000000000000e+00 0.0000000000000000e+00  0.0000000000000000e+00 0.0000000000000000e+00 0.0000000000000000e+00  0.0000000000000000e+00 0.0000000000000000e+00 0.0000000000000000e+00  9.1913919983837340e-09 3.1536299091020526e-09 0.0000000000000000e+00  -2.0575344549633399e-10 4.4964429912422327e-09 0.0000000000000000e+00  -9.4428254740752691e-09 3.6190761728459360e-09 0.0000000000000000e+00  0.0000000000000000e+00 0.0000000000000000e+00 0.0000000000000000e+00  0.0000000000000000e+00 0.0000000000000000e+00 0.0000000000000000e+00  0.0000000000000000e+00 0.0000000000000000e+00 0.0000000000000000e+00  0.0000000000000000e+00 0.0000000000000000e+00 0.0000000000000000e+00  0.0000000000000000e+00 0.0000000000000000e+00 0.0000000000000000e+00  0.0000000000000000e+00 0.0000000000000000e+00 0.0000000000000000e+00  0.0000000000000000e+00 0.0000000000000000e+00 0.0000000000000000e+00  0.0000000000000000e+00 0.0000000000000000e+00 0.0000000000000000e+00  0.0000000000000000e+00 0.0000000000000000e+00 0.0000000000000000e+00  0.0000000000000000e+00 0.0000000000000000e+00 0.0000000000000000e+00  0.0000000000000000e+00 0.0000000000000000e+00 0.0000000000000000e+00  0.0000000000000000e+00 0.0000000000000000e+00 0.0000000000000000e+00  0.0000000000000000e+00 0.0000000000000000e+00 0.0000000000000000e+00  0.0000000000000000e+00 0.0000000000000000e+00 0.0000000000000000e+00  0.0000000000000000e+00 0.0000000000000000e+00 0.0000000000000000e+00  0.0000000000000000e+00 0.0000000000000000e+00 0.0000000000000000e+00  0.0000000000000000e+00 0.0000000000000000e+00 0.0000000000000000e+00  0.0000000000000000e+00 0.0000000000000000e+00 0.0000000000000000e+00  0.0000000000000000e+00 0.0000000000000000e+00 0.0000000000000000e+00  0.0000000000000000e+00 0.0000000000000000e+00 0.0000000000000000e+00  0.0000000000000000e+00 0.0000000000000000e+00 0.0000000000000000e+00  0.0000000000000000e+00 0.0000000000000000e+00 0.0000000000000000e+00  0.0000000000000000e+00 0.0000000000000000e+00 0.0000000000000000e+00  0.0000000000000000e+00 0.0000000000000000e+00 0.0000000000000000e+00  0.0000000000000000e+00 0.0000000000000000e+00 0.0000000000000000e+00  0.0000000000000000e+00 0.0000000000000000e+00 0.0000000000000000e+00  0.0000000000000000e+00 0.0000000000000000e+00 0.0000000000000000e+00  0.0000000000000000e+00 0.0000000000000000e+00 0.0000000000000000e+00  0.0000000000000000e+00 0.0000000000000000e+00 0.0000000000000000e+00  0.0000000000000000e+00 0.0000000000000000e+00 0.0000000000000000e+00  0.0000000000000000e+00 0.0000000000000000e+00 0.0000000000000000e+00  0.0000000000000000e+00 0.0000000000000000e+00 0.0000000000000000e+00  0.0000000000000000e+00 0.0000000000000000e+00 0.0000000000000000e+00  0.0000000000000000e+00 0.0000000000000000e+00 0.0000000000000000e+00  0.0000000000000000e+00 0.0000000000000000e+00 0.0000000000000000e+00  0.0000000000000000e+00 0.0000000000000000e+00 0.0000000000000000e+00  0.0000000000000000e+00 0.0000000000000000e+00 0.0000000000000000e+00  0.0000000000000000e+00 0.0000000000000000e+00 0.0000000000000000e+00  0.0000000000000000e+00 0.0000000000000000e+00 0.0000000000000000e+00  0.0000000000000000e+00 0.0000000000000000e+00 0.0000000000000000e+00  0.0000000000000000e+00 0.0000000000000000e+00 0.0000000000000000e+00  0.0000000000000000e+00 0.0000000000000000e+00 0.0000000000000000e+00  0.0000000000000000e+00 0.0000000000000000e+00 0.0000000000000000e+00  0.0000000000000000e+00 0.0000000000000000e+00 0.0000000000000000e+00  0.0000000000000000e+00 0.0000000000000000e+00 0.0000000000000000e+00  0.0000000000000000e+00 0.0000000000000000e+00 0.0000000000000000e+00  0.0000000000000000e+00 0.0000000000000000e+00 0.0000000000000000e+00  0.0000000000000000e+00 0.0000000000000000e+00 0.0000000000000000e+00  0.0000000000000000e+00 0.0000000000000000e+00 0.0000000000000000e+00  0.0000000000000000e+00 0.0000000000000000e+00 0.0000000000000000e+00  0.0000000000000000e+00 0.0000000000000000e+00 0.0000000000000000e+00  0.0000000000000000e+00 0.0000000000000000e+00 0.0000000000000000e+00  0.0000000000000000e+00 0.0000000000000000e+00 0.0000000000000000e+00  0.0000000000000000e+00 0.0000000000000000e+00 0.0000000000000000e+00  0.0000000000000000e+00 0.0000000000000000e+00 0.0000000000000000e+00  0.0000000000000000e+00 0.0000000000000000e+00 0.0000000000000000e+00  0.0000000000000000e+00 0.0000000000000000e+00 0.0000000000000000e+00  0.0000000000000000e+00 0.0000000000000000e+00 0.0000000000000000e+00  0.0000000000000000e+00 0.0000000000000000e+00 0.0000000000000000e+00  0.0000000000000000e+00 0.0000000000000000e+00 0.0000000000000000e+00  0.0000000000000000e+00 0.0000000000000000e+00 0.0000000000000000e+00  0.0000000000000000e+00 0.0000000000000000e+00 0.0000000000000000e+00  0.0000000000000000e+00 0.0000000000000000e+00 0.0000000000000000e+00  0.0000000000000000e+00 0.0000000000000000e+00 0.0000000000000000e+00  0.0000000000000000e+00 0.0000000000000000e+00 0.0000000000000000e+00  0.0000000000000000e+00 0.0000000000000000e+00 0.0000000000000000e+00  0.0000000000000000e+00 0.0000000000000000e+00 0.0000000000000000e+00  0.0000000000000000e+00 0.0000000000000000e+00 0.0000000000000000e+00  0.0000000000000000e+00 0.0000000000000000e+00 0.0000000000000000e+00  0.0000000000000000e+00 0.0000000000000000e+00 0.0000000000000000e+00  0.0000000000000000e+00 0.0000000000000000e+00 0.0000000000000000e+00  0.0000000000000000e+00 0.0000000000000000e+00 0.0000000000000000e+00  0.0000000000000000e+00 0.0000000000000000e+00 0.0000000000000000e+00  0.0000000000000000e+00 0.0000000000000000e+00 0.0000000000000000e+00  0.0000000000000000e+00 0.0000000000000000e+00 0.0000000000000000e+00  0.0000000000000000e+00 0.0000000000000000e+00 0.0000000000000000e+00  0.0000000000000000e+00 0.0000000000000000e+00 0.0000000000000000e+00  0.0000000000000000e+00 0.0000000000000000e+00 0.0000000000000000e+00  1.1858896472262317e-01 5.9204310554359385e-01 0.0000000000000000e+00  9.1093392469766749e-02 5.3103807001646475e-01 0.0000000000000000e+00  1.8535210290755175e-01 4.0733686809743047e-01 0.0000000000000000e+00  8.2200606898602979e-02 2.3327717223238048e-01 0.0000000000000000e+00  9.9869181373650487e-02 1.2742506868641273e-01 0.0000000000000000e+00  4.3563967731010678e-02 9.2190958825731206e-03 0.0000000000000000e+00  5.8997827595386465e-02 -6.6274918630304117e-02 0.0000000000000000e+00  -2.7322924808400304e-03 -1.4154969127120917e-01 0.0000000000000000e+00  4.1086557601660016e-02 -1.9249848649425350e-01 0.0000000000000000e+00  -1.5584846420361414e-02 -2.2002555966442458e-01 0.0000000000000000e+00  4.2719620519221603e-02 -2.7215794656236364e-01 0.0000000000000000e+00  -1.6358918590940210e-02 -2.7438188033844313e-01 0.0000000000000000e+00  6.2741941099364637e-02 -3.2457412649818024e-01 0.0000000000000000e+00  1.4972932722793150e-02 -3.4648626663704718e-01 0.0000000000000000e+00  6.6345005417160919e-03 -3.1808999984754810e-01 0.0000000000000000e+00  3.7939850342914139e-02 -2.7884560004882575e-01 0.0000000000000000e+00  -3.4874553744929458e-03 -3.0825808510930119e-01 0.0000000000000000e+00  3.0490364554213726e-02 -2.9139723493847275e-01 0.0000000000000000e+00  -2.2051467610710716e-02 -2.9941504908912947e-01 0.0000000000000000e+00  2.6876879635948928e-02 -3.1980877251850914e-01 0.0000000000000000e+00  -5.4816182082651772e-02 -3.1013185472214827e-01 0.0000000000000000e+00  3.1677037371227103e-02 -3.4857174191809964e-01 0.0000000000000000e+00  -5.7755571916392912e-02 -3.7799644674653460e-01 0.0000000000000000e+00  -8.7069686414033953e-02 -3.6759673934592879e-01 0.0000000000000000e+00  -5.4042576614292050e-02 -4.6677542656643306e-01 0.0000000000000000e+00  -9.4460160259771012e-02 -4.2992371122683515e-01 0.0000000000000000e+00  -5.8874311591780595e-02 -5.3651280343401664e-01 0.0000000000000000e+00  -1.2500649734160624e-01 -5.3269615566746786e-01 0.0000000000000000e+00  -1.3892441508060183e-02 -5.7371711302160866e-01 0.0000000000000000e+00  -1.3215054130515747e-01 -5.9342399460521833e-01 0.0000000000000000e+00  -1.6094499393606253e-02 -6.1613534127268788e-01 0.0000000000000000e+00  -1.2323545642740218e-01 -5.0633956015883197e-01 0.0000000000000000e+00  5.6693495691786465e-02 -8.3704866690285396e-01 0.0000000000000000e+00  -6.4581432960861870e-02 -8.4426284863232448e-01 0.0000000000000000e+00  1.0762743782960173e-01 -5.0563906433335915e-01 0.0000000000000000e+00  -3.7576294942389455e-03 -5.1792816992737545e-01 0.0000000000000000e+00  9.6866421891201482e-02 -5.1086578606225164e-01 0.0000000000000000e+00  -2.2176145249257550e-02 -6.0964845249897281e-01 0.0000000000000000e+00  1.3541042009072290e-01 -5.9745326702677704e-01 0.0000000000000000e+00  3.7739163434708234e-02 -5.5014888596698908e-01 0.0000000000000000e+00  1.6158955055202662e-01 -4.3149369073322474e-01 0.0000000000000000e+00  1.0581334580976630e-01 -4.3954842398668259e-01 0.0000000000000000e+00  5.8004020649171352e-02 -3.7592876384685053e-01 0.0000000000000000e+00  1.5313335190329458e-01 -2.5231692758191276e-01 0.0000000000000000e+00  1.1445540708315138e-01 -4.0905816483256796e-01 0.0000000000000000e+00  2.5615345651998495e-01 -4.1187851261718111e-01 0.0000000000000000e+00  2.4550915780268950e-01 -2.7953618694377269e-01 0.0000000000000000e+00  3.3339613419083834e-02 -1.7698136678920973e-01 0.0000000000000000e+00  5.7101595882051694e-02 -2.0141230163029089e-01 0.0000000000000000e+00  1.4134887681959782e-01 -2.7824321105726901e-01 0.0000000000000000e+00  4.5671307858584087e-02 -3.1702056089537067e-01 0.0000000000000000e+00  1.2240455305043101e-01 -3.8786159185515284e-01 0.0000000000000000e+00  6.5259904438848715e-02 -3.8431475740628568e-01 0.0000000000000000e+00  8.8881571999155310e-03 -4.3559123916688630e-01 0.0000000000000000e+00  1.3466716180560190e-01 -4.5872532765852275e-01 0.0000000000000000e+00  -1.7470849924931593e-02 -4.9000218751123514e-01 0.0000000000000000e+00  1.0589065816965619e-01 -5.0571669830819022e-01 0.0000000000000000e+00  -4.2267229900679958e-02 -5.0743518321907721e-01 0.0000000000000000e+00  1.0673311092966768e-01 -5.1761615312925469e-01 0.0000000000000000e+00  -1.8659720550579923e-02 -5.4806074494190793e-01 0.0000000000000000e+00  1.1371850716320285e-01 -5.9865374666610383e-01 0.0000000000000000e+00  -1.0039704189881958e-01 -6.0201711113333778e-01 0.0000000000000000e+00  3.2704971548924607e-02 -5.6383021950400258e-01 0.0000000000000000e+00  -1.0461054704737567e-01 -5.3849019869492154e-01 0.0000000000000000e+00  3.7556635796733434e-02 -5.2048647176426222e-01 0.0000000000000000e+00  -1.0884497655284518e-01 -5.0279373467131594e-01 0.0000000000000000e+00  1.7980062118500423e-02 -4.7362625702399197e-01 0.0000000000000000e+00  -1.0571309051115753e-01 -4.5086770475458104e-01 0.0000000000000000e+00  1.1210602468323274e-02 -4.2558290962852963e-01 0.0000000000000000e+00  -9.7505768218279734e-02 -3.9771754059523190e-01 0.0000000000000000e+00  8.3464480702052871e-03 -3.8324359218429743e-01 0.0000000000000000e+00  -4.3076870758434166e-02 -3.5732704149870587e-01 0.0000000000000000e+00  -7.5200502187340423e-02 -3.5564201497544279e-01 0.0000000000000000e+00  -1.0114794929964423e-02 -3.1467039216091064e-01 0.0000000000000000e+00  -6.0738106190686869e-02 -3.1877763095607892e-01 0.0000000000000000e+00  1.0837422945896595e-03 -3.1508264204001057e-01 0.0000000000000000e+00  -5.3229073343889419e-02 -3.1383151574220758e-01 0.0000000000000000e+00  7.9265808968774498e-04 -3.0991487043541316e-01 0.0000000000000000e+00  -4.6789566499269700e-02 -3.0147280309312130e-01 0.0000000000000000e+00  8.1979744266633733e-03 -3.1413608338430660e-01 0.0000000000000000e+00  -1.4726800677983995e-02 -3.1176881748468466e-01 0.0000000000000000e+00  -8.3590868057131298e-02 -3.2091495930355712e-01 0.0000000000000000e+00  -7.8974914803991419e-03 -2.8106866266110420e-01 0.0000000000000000e+00  -8.9401641870127752e-02 -2.6615920100281981e-01 0.0000000000000000e+00  -2.0845796921826601e-02 -2.2973821524236213e-01 0.0000000000000000e+00  -8.0546511163017129e-02 -1.9449448287858345e-01 0.0000000000000000e+00  -2.3184612991566451e-02 -1.4483840664890138e-01 0.0000000000000000e+00  -6.1042718725083940e-02 -8.3194923813204369e-02 0.0000000000000000e+00  -2.2352207598921928e-02 1.7681744382915092e-03 0.0000000000000000e+00  -4.0304508787176271e-02 1.1438024583838509e-01 0.0000000000000000e+00  1.9436569741942751e-02 1.7623765505890665e-01 0.0000000000000000e+00  -1.1618883873254424e-01 4.1169400045188498e-01 0.0000000000000000e+00  -1.9520780097764323e-01 7.2432935581858293e-01 0.0000000000000000e+00  -2.1326629004457331e-01 6.0506711832291493e-01 0.0000000000000000e+00  -1.0380938799311790e-02 -3.6016209689947348e-01 0.0000000000000000e+00  -1.3983974901136302e-02 2.0713889925171849e-01 0.0000000000000000e+00  6.6927480383935541e-03 2.6325104390213944e-01 0.0000000000000000e+00  8.8412371156599435e-03 3.8049075328128706e-01 0.0000000000000000e+00  -4.9400019011113794e-02 -2.5736855810157722e-01 0.0000000000000000e+00  2.1267424188574906e-02 4.2866171822115068e-01 0.0000000000000000e+00  1.1772055004236779e-02 -7.3709126260426500e-02 0.0000000000000000e+00  2.8638714697268381e-02 4.2053249939699072e-01 0.0000000000000000e+00  4.7488860722741302e-03 1.3458535265928409e-01 0.0000000000000000e+00  -7.4566687883085539e-04 1.9508230713454261e-01 0.0000000000000000e+00  -7.3471805799295534e-02 4.8865535367280827e-01 0.0000000000000000e+00  5.1203169607672971e-03 2.4547814270702059e-01 0.0000000000000000e+00  -2.9047430526692213e-02 4.4397963038970351e-01 0.0000000000000000e+00  -3.8624749156616002e-03 2.2227839186176282e-01 0.0000000000000000e+00  -5.6871820874812822e-04 2.4368088800098314e-01 0.0000000000000000e+00  -1.2107031902996293e-02 4.1184406790829720e-01 0.0000000000000000e+00  6.5189756224213316e-02 4.9149834190633029e-01 0.0000000000000000e+00  -9.0584957040386674e-03 2.5099086406387705e-01 0.0000000000000000e+00  -6.7858945368081975e-03 3.6681993046733996e-01 0.0000000000000000e+00  -1.6351145889347682e-03 2.6038522658318830e-01 0.0000000000000000e+00  -1.3791296383590624e-02 3.1927887160731583e-01 0.0000000000000000e+00  7.8206045439275802e-03 2.3820401512276967e-01 0.0000000000000000e+00  -9.3017759676500625e-04 2.0527431200341328e-01 0.0000000000000000e+00  -8.6679765813957900e-03 2.7937079862262454e-01 0.0000000000000000e+00  5.3336926463156947e-03 5.3266325672342373e-02 0.0000000000000000e+00  -3.0610901622123821e-04 1.9156132087323510e-01 0.0000000000000000e+00  -8.1045604615340133e-02 -3.3068989068373639e-01 0.0000000000000000e+00  1.7473139297185356e-03 2.8821175051529296e-01 0.0000000000000000e+00  -1.8566991484435049e-02 3.0142651385316954e-01 0.0000000000000000e+00  2.8087428423549027e-02 -1.0423139718317205e-01 0.0000000000000000e+00  1.6560920372670075e-02 1.2280767746659171e-01 0.0000000000000000e+00  7.8640499117843821e-03 3.1064848396793526e-01 0.0000000000000000e+00  -1.1334648897438869e-02 2.9219073647730531e-01 0.0000000000000000e+00  -1.0973800483573137e-02 1.7398927195145264e-01 0.0000000000000000e+00  1.9757007188698772e-03 2.9352061107184924e-01 0.0000000000000000e+00  1.5567393361078511e-02 1.4768392599163441e-01 0.0000000000000000e+00  3.5978696521300253e-04 1.7659796562140040e-01 0.0000000000000000e+00  2.9412570357084983e-03 2.8095549882890430e-01 0.0000000000000000e+00  -1.9967816816282777e-03 4.0884434453851826e-01 0.0000000000000000e+00  1.4688699886903489e-02 2.0161835595394681e-01 0.0000000000000000e+00  7.3373098294355933e-03 2.2928327633596665e-01 0.0000000000000000e+00  -4.8921678331564550e-02 -3.3751131036918863e-01 0.0000000000000000e+00  1.2808573797259301e-01 -2.9650372278731013e-01 0.0000000000000000e+00  -1.3517397571107737e-01 1.6421421638850089e-01 0.0000000000000000e+00  1.8602775137180835e-02 -3.2855615878376360e-01 0.000000