<?xml version="1.0"?>
<VTKFile type="UnstructuredGrid"  version="0.1"  >
<UnstructuredGrid>
<Piece  NumberOfPoints="1419" NumberOfCells="2698">
<Points>
<DataArray  type="Float64"  NumberOfComponents="3"  format="ascii">1.194438616037773e-09 -9.372925484060992e-07 0  1.221041877080683e-08 0.4099990587138404 0  2.500000017260237 -1.37138883868432e-06 0  2.500000017260246 0.4099986286111732 0  0.6000000181314888 0.1899985817125207 0  0.6000000253461857 0.2099985835742225 0  0.25 0.2 0  0.1500000064627282 0.1999990691425632 0  0.2489897948556636 0.21 0  0.2489897948556636 0.19 0  0.6000000231921568 0.199998576541806 0  1.208676469959088e-08 0.380713344699605 0  1.173434550105133e-08 0.351427631152282 0  1.114125304755203e-08 0.3221419179622532 0  1.030636603067813e-08 0.2928562048928587 0  9.271277266434703e-09 0.2635704917619903 0  8.075355020320173e-09 0.2342847784477025 0  6.76611875052663e-09 0.2049990647670296 0  5.450772374211653e-09 0.1757133507508606 0  4.224281411699242e-09 0.1464276363650363 0  3.147670372266066e-09 0.117141921678541 0  2.30517434185216e-09 0.087856206802921 0  1.682417599015972e-09 0.05857049190137684 0  1.312337987356221e-09 0.0292847771540369 0  0.03015443867343161 -9.374736297059362e-07 0  0.06140002052806028 -9.381297072031686e-07 0  0.09377624072016554 -9.396175316049284e-07 0  0.1273239946877456 -9.425600375206994e-07 0  0.162085683705306 -9.480758767147981e-07 0  0.1981052396005439 -9.58907671172861e-07 0  0.235428179104108 -9.791503562975085e-07 0  0.2741016518395464 -1.011424160726332e-06 0  0.3141745462384463 -1.05608067915861e-06 0  0.3556974876559638 -1.111356064145211e-06 0  0.3987229511577423 -1.170747408885128e-06 0  0.4433053051655377 -1.227561328636082e-06 0  0.489500878880044 -1.277365916277607e-06 0  0.5373680673313088 -1.316094885353601e-06 0  0.5869673438546428 -1.342284602918929e-06 0  0.6383613797721228 -1.358336038527784e-06 0  0.6916151277909892 -1.366272768826163e-06 0  0.7467958747238965 -1.369750022972933e-06 0  0.8039733623467437 -1.371152479537188e-06 0  0.8632198304062112 -1.371606746168897e-06 0  0.9246101494589661 -1.371675521234429e-06 0  0.9882218980544862 -1.371618952583833e-06 0  1.054135462641887 -1.371550342693779e-06 0  1.122434117696819 -1.371493158642302e-06 0  1.193204194340792 -1.371451676974595e-06 0  1.26653510710572 -1.37142519284877e-06 0  1.342519533287478 -1.371409595634569e-06 0  1.42125346575364 -1.371400353382367e-06 0  1.502836406360965 -1.371394928278002e-06 0  1.587371457016201 -1.371392005531694e-06 0  1.674965436036143 -1.371390458184672e-06 0  1.765729019085059 -1.371389634520147e-06 0  1.859776926139964 -1.371389229558349e-06 0  1.957227994747136 -1.371389017201878e-06 0  2.058205347130105 -1.371388920523689e-06 0  2.162836608450157 -1.371388871183254e-06 0  2.271253974551089 -1.371388850275357e-06 0  2.383594464063658 -1.371388841327463e-06 0  2.500000017260237 0.1024986286109242 0  2.500000017260241 0.2049986286106414 0  2.500000017260246 0.3074986286108897 0  2.383594464063904 0.4099986286111758 0  2.271253974551571 0.4099986286111849 0  2.162836608450875 0.4099986286112067 0  2.058205347131095 0.4099986286112538 0  1.957227994748473 0.4099986286113495 0  1.859776926141854 0.4099986286115723 0  1.765729019087826 0.4099986286119759 0  1.674965436040564 0.4099986286128339 0  1.587371457023554 0.409998628614386 0  1.502836406373751 0.4099986286173428 0  1.421253465776606 0.4099986286230593 0  1.342519533327688 0.4099986286327739 0  1.266535107175502 0.409998628649768 0  1.193204194463522 0.4099986286817911 0  1.122434117908903 0.4099986287392674 0  1.054135462992388 0.4099986288354693 0  0.988221898639506 0.4099986290262783 0  0.9246101504033842 0.4099986293771389 0  0.8632198319172333 0.4099986300498447 0  0.8039733647126044 0.4099986313966587 0  0.7467958783577566 0.4099986340997904 0  0.69161513320151 0.4099986393649784 0  0.6383613875986901 0.4099986495976641 0  0.5869673547692033 0.4099986671279321 0  0.5373680818152646 0.4099986941131415 0  0.4895008972052778 0.4099987323213923 0  0.4433053271796296 0.4099987797245543 0  0.3987229761517175 0.4099988331164875 0  0.3556975144249556 0.4099988882366508 0  0.3141745733381653 0.4099989396498614 0  0.2741016777453077 0.4099989823336416 0  0.2354282027851906 0.4099990130194153 0  0.1981052604767602 0.4099990331968396 0  0.1620857017095939 0.4099990450382741 0  0.1273240101530738 0.4099990516431669 0  0.09377625417834015 0.4099990554489018 0  0.06140003259219812 0.4099990574281393 0  0.03015444992656419 0.4099990584568252 0  0.2497468076502589 0.2050254481002335 0  0.2497468076502614 0.1949745518997913 0  0.2469965138713315 0.1829312471692042 0  0.2439893610222796 0.1762310157300057 0  0.2400332027218793 0.1700436201711326 0  0.2352133862499024 0.1645025099221153 0  0.2296338918035332 0.1597272072206333 0  0.22341508882068 0.1558207261593063 0  0.2166911389572179 0.1528673390339732 0  0.2096071016991694 0.1509307582434002 0  0.2023158049844241 0.1500527598648027 0  0.1949745479611525 0.1502522850258194 0  0.187741707706194 0.1515250277203477 0  0.1807733222785029 0.153843529947444 0  0.1742197245829695 0.1571577725939253 0  0.1682222989992407 0.161396255439111 0  0.1629104313792673 0.1664675389066909 0  0.158398717570285 0.1722622172776092 0  0.1547844913337979 0.1786552785292806 0  0.1521457243629908 0.1855088015496651 0  0.1505393443040583 0.192674931385243 0  0.1505393463228214 0.2073232071127408 0  0.1521457284201112 0.2144893376153533 0  0.154784497387242 0.2213428617917794 0  0.1583987256531085 0.2277359248333187 0  0.1629104414618699 0.2335306057439611 0  0.1682223111237405 0.2386018928756908 0  0.1742197387102595 0.2428403806495653 0  0.1807733384458582 0.246154630134566 0  0.1877417259151823 0.2484731417624164 0  0.1949745682271853 0.2497458974146638 0  0.202315827287315 0.2499454397080554 0  0.2096071260866247 0.2490674652550584 0  0.216691165368989 0.2471309159752861 0  0.2234151172510655 0.2441775729247203 0  0.229633922140489 0.2402711517441018 0  0.2352134182417823 0.2354959339346168 0  0.2400332358176006 0.229954942840458 0  0.2439893937023171 0.2237677362816781 0  0.2469965419810239 0.2170678305556971 0  0.2564581196883913 0.2099995487655005 0  0.2639264272468228 0.209999395028116 0  0.2713947332017277 0.2099992947086588 0  0.2788630354905415 0.2099992178743536 0  0.2863313379844331 0.2099991548779172 0  0.2937996414488006 0.2099990996701804 0  0.3012679435690231 0.2099990492099687 0  0.308736244652543 0.2099990143546773 0  0.3162045495280081 0.2099989807824551 0  0.323672849844282 0.2099989495600414 0  0.3311411546736844 0.2099989215453806 0  0.3386094543555128 0.2099988957889054 0  0.3460777581530282 0.2099988711196445 0  0.3535460582922953 0.2099988441927282 0  0.3610143585548147 0.2099988308524184 0  0.3684826616981216 0.2099988149748178 0  0.3759509611253289 0.2099987983482667 0  0.3834192642481974 0.2099987827000756 0  0.3908875636663761 0.2099987675530542 0  0.3983558668583007 0.209998753299098 0  0.4058241660999668 0.2099987389080368 0  0.4132924689416785 0.2099987237486623 0  0.4207607683575383 0.2099987053800521 0  0.4282290686658523 0.2099986977753763 0  0.4356973714664586 0.2099986874642434 0  0.4431656715652123 0.2099986760118499 0  0.4506339746423058 0.2099986644460206 0  0.4581022746441137 0.2099986531881573 0  0.4655705780553986 0.2099986422109704 0  0.4730388779052937 0.2099986315611016 0  0.4805071816918088 0.2099986211344356 0  0.487975481785504 0.2099986110617161 0  0.4954437860969348 0.2099986011421472 0  0.5029120860111871 0.2099985924468393 0  0.5103803906001376 0.2099985846308421 0  0.5178486910282554 0.2099985776461145 0  0.5253169970740315 0.2099985706720731 0  0.5327852975394263 0.2099985641667195 0  0.5402536035629181 0.2099985588852054 0  0.547721904453211 0.2099985552105715 0  0.5551902112203404 0.2099985498783654 0  0.5626585131361156 0.2099985409353708 0  0.5701268145280221 0.2099985527937417 0  0.5775951212322341 0.2099985604952938 0  0.5850634221228785 0.2099985658525225 0  0.5925317259300633 0.2099985745901235 0  0.6000000262963767 0.2049985789701119 0  0.600000019012615 0.1949985793223553 0  0.5925317151829843 0.1899985713084863 0  0.5850634152476256 0.1899985608257758 0  0.5775951100539838 0.1899985526122169 0  0.5701268098920853 0.1899985447892718 0  0.5626585053249181 0.1899985334431627 0  0.5551901997654753 0.189998540656237 0  0.5477218994379854 0.1899985434953107 0  0.5402535928047587 0.1899985464460629 0  0.532785292676015 0.189998550671154 0  0.5253169855924043 0.1899985561788574 0  0.5178486843969186 0.1899985627691861 0  0.5103803777176732 0.189998570227436 0  0.502912077177126 0.1899985784246437 0  0.495443770891329 0.1899985875050673 0  0.4879754702091906 0.1899985973277172 0  0.4805071640901808 0.189998607802748 0  0.4730388626870524 0.1899986187198288 0  0.465570556862351 0.1899986301688413 0  0.4581022559621994 0.1899986419722973 0  0.4506339507061624 0.1899986541146813 0  0.443165649685159 0.1899986665538943 0  0.4356973443185459 0.1899986791933338 0  0.4282290425816159 0.1899986912789058 0  0.4207607378076511 0.1899987004078812 0  0.4132924336969362 0.1899987197614833 0  0.4058241324765503 0.1899987367168871 0  0.398355828118096 0.1899987521368395 0  0.3908875265572729 0.1899987678493019 0  0.3834192220452584 0.1899987838242315 0  0.3759509202938897 0.1899988002233795 0  0.3684826158419444 0.1899988172532851 0  0.3610143145736978 0.189998833161147 0  0.3535460100863886 0.1899988472327432 0  0.3460777049241373 0.1899988745348534 0  0.3386094034100584 0.1899989004001113 0  0.3311410982046995 0.1899989264705838 0  0.3236727973591113 0.1899989546409561 0  0.3162044927089996 0.1899989856404903 0  0.3087361920280992 0.189999018599197 0  0.3012678874622184 0.1899990531558878 0  0.2937995843690629 0.1899991029502892 0  0.286331282846794 0.1899991578526699 0  0.2788629806470142 0.1899992206343053 0  0.2713946776029217 0.1899992972970728 0  0.2639263777560185 0.1899993983525408 0  0.2564580788685147 0.1899995514359976 0 
[...]
<PointData  Vectors="f_30-0"> 
<DataArray  type="Float64"  Name="f_30-0"  NumberOfComponents="3" format="ascii">0.0000000000000000e+00 0.0000000000000000e+00 0.0000000000000000e+00  0.0000000000000000e+00 0.0000000000000000e+00 0.0000000000000000e+00  0.0000000000000000e+00 0.0000000000000000e+00 0.0000000000000000e+00  0.0000000000000000e+00 0.0000000000000000e+00 0.0000000000000000e+00  7.7024862096148044e-03 -4.5236059664830693e-02 0.0000000000000000e+00  1.4172106678650025e-02 -4.0272785398182354e-02 0.0000000000000000e+00  0.0000000000000000e+00 0.0000000000000000e+00 0.0000000000000000e+00  0.0000000000000000e+00 0.0000000000000000e+00 0.0000000000000000e+00  0.0000000000000000e+00 0.0000000000000000e+00 0.0000000000000000e+00  0.0000000000000000e+00 0.0000000000000000e+00 0.0000000000000000e+00  3.5889940962593778e-02 -1.1116361603044561e-01 0.0000000000000000e+00  0.0000000000000000e+00 0.0000000000000000e+00 0.0000000000000000e+00  0.0000000000000000e+00 0.0000000000000000e+00 0.0000000000000000e+00  0.0000000000000000e+00 0.0000000000000000e+00 0.0000000000000000e+00  0.0000000000000000e+00 0.0000000000000000e+00 0.0000000000000000e+00  0.0000000000000000e+00 0.0000000000000000e+00 0.0000000000000000e+00  0.0000000000000000e+00 0.0000000000000000e+00 0.0000000000000000e+00  0.0000000000000000e+00 0.0000000000000000e+00 0.0000000000000000e+00  0.0000000000000000e+00 0.0000000000000000e+00 0.0000000000000000e+00  0.0000000000000000e+00 0.0000000000000000e+00 0.0000000000000000e+00  0.0000000000000000e+00 0.0000000000000000e+00 0.0000000000000000e+00  0.0000000000000000e+00 0.0000000000000000e+00 0.0000000000000000e+00  0.0000000000000000e+00 0.0000000000000000e+00 0.0000000000000000e+00  0.0000000000000000e+00 0.0000000000000000e+00 0.0000000000000000e+00  0.0000000000000000e+00 0.0000000000000000e+00 0.0000000000000000e+00  0.0000000000000000e+00 0.0000000000000000e+00 0.0000000000000000e+00  0.0000000000000000e+00 0.0000000000000000e+00 0.0000000000000000e+00  0.0000000000000000e+00 0.0000000000000000e+00 0.0000000000000000e+00  0.0000000000000000e+00 0.0000000000000000e+00 0.0000000000000000e+00  0.0000000000000000e+00 0.0000000000000000e+00 0.0000000000000000e+00  0.0000000000000000e+00 0.0000000000000000e+00 0.0000000000000000e+00  0.0000000000000000e+00 0.0000000000000000e+00 0.0000000000000000e+00  0.0000000000000000e+00 0.0000000000000000e+00 0.0000000000000000e+00  0.0000000000000000e+00 0.0000000000000000e+00 0.0000000000000000e+00  0.0000000000000000e+00 0.0000000000000000e+00 0.0000000000000000e+00  0.0000000000000000e+00 0.0000000000000000e+00 0.0000000000000000e+00  0.0000000000000000e+00 0.0000000000000000e+00 0.0000000000000000e+00  0.0000000000000000e+00 0.0000000000000000e+00 0.0000000000000000e+00  0.0000000000000000e+00 0.0000000000000000e+00 0.0000000000000000e+00  0.0000000000000000e+00 0.0000000000000000e+00 0.0000000000000000e+00  0.0000000000000000e+00 0.0000000000000000e+00 0.0000000000000000e+00  0.0000000000000000e+00 0.0000000000000000e+00 0.0000000000000000e+00  0.0000000000000000e+00 0.0000000000000000e+00 0.0000000000000000e+00  0.0000000000000000e+00 0.0000000000000000e+00 0.0000000000000000e+00  0.0000000000000000e+00 0.0000000000000000e+00 0.0000000000000000e+00  0.0000000000000000e+00 0.0000000000000000e+00 0.0000000000000000e+00  0.0000000000000000e+00 0.0000000000000000e+00 0.0000000000000000e+00  0.0000000000000000e+00 0.0000000000000000e+00 0.0000000000000000e+00  0.0000000000000000e+00 0.0000000000000000e+00 0.0000000000000000e+00  0.0000000000000000e+00 0.0000000000000000e+00 0.0000000000000000e+00  0.0000000000000000e+00 0.0000000000000000e+00 0.0000000000000000e+00  0.0000000000000000e+00 0.0000000000000000e+00 0.0000000000000000e+00  0.0000000000000000e+00 0.0000000000000000e+00 0.0000000000000000e+00  0.0000000000000000e+00 0.0000000000000000e+00 0.0000000000000000e+00  0.0000000000000000e+00 0.0000000000000000e+00 0.0000000000000000e+00  0.0000000000000000e+00 0.0000000000000000e+00 0.0000000000000000e+00  0.0000000000000000e+00 0.0000000000000000e+00 0.0000000000000000e+00  0.0000000000000000e+00 0.0000000000000000e+00 0.0000000000000000e+00  0.0000000000000000e+00 0.0000000000000000e+00 0.0000000000000000e+00  0.0000000000000000e+00 0.0000000000000000e+00 0.0000000000000000e+00  0.0000000000000000e+00 0.0000000000000000e+00 0.0000000000000000e+00  0.0000000000000000e+00 0.0000000000000000e+00 0.0000000000000000e+00  4.7891908277174479e-09 1.6071577424002113e-09 0.0000000000000000e+00  -1.9577493363802199e-10 2.0755510829760194e-09 0.0000000000000000e+00  -5.1434066707540053e-09 1.9427097848889754e-09 0.0000000000000000e+00  0.0000000000000000e+00 0.0000000000000000e+00 0.0000000000000000e+00  0.0000000000000000e+00 0.0000000000000000e+00 0.0000000000000000e+00  0.0000000000000000e+00 0.0000000000000000e+00 0.0000000000000000e+00  0.0000000000000000e+00 0.0000000000000000e+00 0.0000000000000000e+00  0.0000000000000000e+00 0.0000000000000000e+00 0.0000000000000000e+00  0.0000000000000000e+00 0.0000000000000000e+00 0.0000000000000000e+00  0.0000000000000000e+00 0.0000000000000000e+00 0.0000000000000000e+00  0.0000000000000000e+00 0.0000000000000000e+00 0.0000000000000000e+00  0.0000000000000000e+00 0.0000000000000000e+00 0.0000000000000000e+00  0.0000000000000000e+00 0.0000000000000000e+00 0.0000000000000000e+00  0.0000000000000000e+00 0.0000000000000000e+00 0.0000000000000000e+00  0.0000000000000000e+00 0.0000000000000000e+00 0.0000000000000000e+00  0.0000000000000000e+00 0.0000000000000000e+00 0.0000000000000000e+00  0.0000000000000000e+00 0.0000000000000000e+00 0.0000000000000000e+00  0.0000000000000000e+00 0.0000000000000000e+00 0.0000000000000000e+00  0.0000000000000000e+00 0.0000000000000000e+00 0.0000000000000000e+00  0.0000000000000000e+00 0.0000000000000000e+00 0.0000000000000000e+00  0.0000000000000000e+00 0.0000000000000000e+00 0.0000000000000000e+00  0.0000000000000000e+00 0.0000000000000000e+00 0.0000000000000000e+00  0.0000000000000000e+00 0.0000000000000000e+00 0.0000000000000000e+00  0.0000000000000000e+00 0.0000000000000000e+00 0.0000000000000000e+00  0.0000000000000000e+00 0.0000000000000000e+00 0.0000000000000000e+00  0.0000000000000000e+00 0.0000000000000000e+00 0.0000000000000000e+00  0.0000000000000000e+00 0.0000000000000000e+00 0.0000000000000000e+00  0.0000000000000000e+00 0.0000000000000000e+00 0.0000000000000000e+00  0.0000000000000000e+00 0.0000000000000000e+00 0.0000000000000000e+00  0.0000000000000000e+00 0.0000000000000000e+00 0.0000000000000000e+00  0.0000000000000000e+00 0.0000000000000000e+00 0.0000000000000000e+00  0.0000000000000000e+00 0.0000000000000000e+00 0.0000000000000000e+00  0.0000000000000000e+00 0.0000000000000000e+00 0.0000000000000000e+00  0.0000000000000000e+00 0.0000000000000000e+00 0.0000000000000000e+00  0.0000000000000000e+00 0.0000000000000000e+00 0.0000000000000000e+00  0.0000000000000000e+00 0.0000000000000000e+00 0.0000000000000000e+00  0.0000000000000000e+00 0.0000000000000000e+00 0.0000000000000000e+00  0.0000000000000000e+00 0.0000000000000000e+00 0.0000000000000000e+00  0.0000000000000000e+00 0.0000000000000000e+00 0.0000000000000000e+00  0.0000000000000000e+00 0.0000000000000000e+00 0.0000000000000000e+00  0.0000000000000000e+00 0.0000000000000000e+00 0.0000000000000000e+00  0.0000000000000000e+00 0.0000000000000000e+00 0.0000000000000000e+00  0.0000000000000000e+00 0.0000000000000000e+00 0.0000000000000000e+00  0.0000000000000000e+00 0.0000000000000000e+00 0.0000000000000000e+00  0.0000000000000000e+00 0.0000000000000000e+00 0.0000000000000000e+00  0.0000000000000000e+00 0.0000000000000000e+00 0.0000000000000000e+00  0.0000000000000000e+00 0.0000000000000000e+00 0.0000000000000000e+00  0.0000000000000000e+00 0.0000000000000000e+00 0.0000000000000000e+00  0.0000000000000000e+00 0.0000000000000000e+00 0.0000000000000000e+00  0.0000000000000000e+00 0.0000000000000000e+00 0.0000000000000000e+00  0.0000000000000000e+00 0.0000000000000000e+00 0.0000000000000000e+00  0.0000000000000000e+00 0.0000000000000000e+00 0.0000000000000000e+00  0.0000000000000000e+00 0.0000000000000000e+00 0.0000000000000000e+00  0.0000000000000000e+00 0.0000000000000000e+00 0.0000000000000000e+00  0.0000000000000000e+00 0.0000000000000000e+00 0.0000000000000000e+00  0.0000000000000000e+00 0.0000000000000000e+00 0.0000000000000000e+00  0.0000000000000000e+00 0.0000000000000000e+00 0.0000000000000000e+00  0.0000000000000000e+00 0.0000000000000000e+00 0.0000000000000000e+00  0.0000000000000000e+00 0.0000000000000000e+00 0.0000000000000000e+00  0.0000000000000000e+00 0.0000000000000000e+00 0.0000000000000000e+00  0.0000000000000000e+00 0.0000000000000000e+00 0.0000000000000000e+00  0.0000000000000000e+00 0.0000000000000000e+00 0.0000000000000000e+00  0.0000000000000000e+00 0.0000000000000000e+00 0.0000000000000000e+00  0.0000000000000000e+00 0.0000000000000000e+00 0.0000000000000000e+00  0.0000000000000000e+00 0.0000000000000000e+00 0.0000000000000000e+00  0.0000000000000000e+00 0.0000000000000000e+00 0.0000000000000000e+00  0.0000000000000000e+00 0.0000000000000000e+00 0.0000000000000000e+00  0.0000000000000000e+00 0.0000000000000000e+00 0.0000000000000000e+00  0.0000000000000000e+00 0.0000000000000000e+00 0.0000000000000000e+00  0.0000000000000000e+00 0.0000000000000000e+00 0.0000000000000000e+00  0.0000000000000000e+00 0.0000000000000000e+00 0.0000000000000000e+00  0.0000000000000000e+00 0.0000000000000000e+00 0.0000000000000000e+00  0.0000000000000000e+00 0.0000000000000000e+00 0.0000000000000000e+00  0.0000000000000000e+00 0.0000000000000000e+00 0.0000000000000000e+00  0.0000000000000000e+00 0.0000000000000000e+00 0.0000000000000000e+00  0.0000000000000000e+00 0.0000000000000000e+00 0.0000000000000000e+00  0.0000000000000000e+00 0.0000000000000000e+00 0.0000000000000000e+00  0.0000000000000000e+00 0.0000000000000000e+00 0.0000000000000000e+00  0.0000000000000000e+00 0.0000000000000000e+00 0.0000000000000000e+00  0.0000000000000000e+00 0.0000000000000000e+00 0.0000000000000000e+00  0.0000000000000000e+00 0.0000000000000000e+00 0.0000000000000000e+00  7.5665511970428048e-02 2.1609851559409723e-01 0.0000000000000000e+00  5.9797305973157286e-02 1.6008565949588932e-01 0.0000000000000000e+00  5.3112967500146130e-02 8.4011648917087969e-02 0.0000000000000000e+00  2.9087650624985195e-02 1.0904383306446835e-03 0.0000000000000000e+00  2.1316462501004711e-02 -3.3650096229400239e-02 0.0000000000000000e+00  2.2450379546141062e-02 -9.4549947406738874e-02 0.0000000000000000e+00  2.5227497292857459e-02 -1.2177400594061399e-01 0.0000000000000000e+00  -5.4154446712210268e-03 -1.3892065615721794e-01 0.0000000000000000e+00  3.1946373917659691e-02 -1.3644939211989235e-01 0.0000000000000000e+00  -5.4739991033761889e-03 -1.4683730214632582e-01 0.0000000000000000e+00  3.1348369569813621e-02 -1.5205632670710154e-01 0.0000000000000000e+00  -5.0332501963611083e-03 -1.5210706835371657e-01 0.0000000000000000e+00  3.4953952303512205e-02 -1.6157823707185553e-01 0.0000000000000000e+00  3.3377070358635678e-03 -1.5544448878529246e-01 0.0000000000000000e+00  -7.6304660334824829e-04 -1.4632192249023543e-01 0.0000000000000000e+00  1.3712472037415572e-02 -1.2919601708995165e-01 0.0000000000000000e+00  -3.5219372727370150e-03 -1.3577883466545979e-01 0.0000000000000000e+00  1.3862648800144258e-02 -1.2642281573973521e-01 0.0000000000000000e+00  -7.3106941721901939e-03 -1.2792277052746523e-01 0.0000000000000000e+00  1.6562957007236895e-02 -1.2735433340139141e-01 0.0000000000000000e+00  -1.2985973288980816e-02 -1.2724574700164856e-01 0.0000000000000000e+00  2.2761865003037417e-02 -1.3146563603303971e-01 0.0000000000000000e+00  -8.0904775671277965e-03 -1.3085165323540682e-01 0.0000000000000000e+00  -1.4047182914200228e-02 -1.3424881509759576e-01 0.0000000000000000e+00  2.9382591450004434e-03 -1.3987254017773748e-01 0.0000000000000000e+00  -1.0846807173604730e-02 -1.4240256711109467e-01 0.0000000000000000e+00  1.9977308094725828e-03 -1.5045677520499839e-01 0.0000000000000000e+00  -1.9515369038388082e-02 -1.5937461274903006e-01 0.0000000000000000e+00  1.1513259665404641e-02 -1.6270123793971550e-01 0.0000000000000000e+00  -2.7827320211669091e-02 -1.6724448444896148e-01 0.0000000000000000e+00  1.3934581255776462e-02 -1.7776105386806512e-01 0.0000000000000000e+00  -2.6192782092749261e-02 -1.7820504196750925e-01 0.0000000000000000e+00  9.3116762003728499e-03 -2.0670444273610394e-01 0.0000000000000000e+00  -2.5259875142649924e-02 -2.0975015212134612e-01 0.0000000000000000e+00  1.2096976929187177e-02 -2.0314567470457348e-01 0.0000000000000000e+00  -3.0349012202835368e-02 -1.9680111052791208e-01 0.0000000000000000e+00  1.7875337375630018e-02 -2.0768677091017151e-01 0.0000000000000000e+00  -3.4093465261018495e-02 -2.2723289594375748e-01 0.0000000000000000e+00  2.5458938690567451e-02 -2.3744772708372450e-01 0.0000000000000000e+00  -2.5465848261533530e-02 -2.1865639420593946e-01 0.0000000000000000e+00  2.7546469965866818e-02 -2.2595395165129809e-01 0.0000000000000000e+00  6.7093779359791222e-03 -2.1704878501776009e-01 0.0000000000000000e+00  -1.8937432515917521e-02 -1.9991193818784614e-01 0.0000000000000000e+00  3.5062347939684574e-02 -1.6440875601544810e-01 0.0000000000000000e+00  1.9666237643648989e-03 -1.8641095676498409e-01 0.0000000000000000e+00  6.5518730236339889e-02 -1.4832883765597291e-01 0.0000000000000000e+00  6.5652895984140494e-02 -1.1001693853984833e-01 0.0000000000000000e+00  -2.0127904527404594e-02 -8.9057254398300520e-02 0.0000000000000000e+00  -4.6122619480037626e-03 -1.1446748066275682e-01 0.0000000000000000e+00  3.9393623727627614e-02 -1.5782500705667424e-01 0.0000000000000000e+00  -2.5887913471258524e-03 -1.7126471146016431e-01 0.0000000000000000e+00  3.8629307175609993e-02 -2.0445602025164281e-01 0.0000000000000000e+00  1.4004311850826030e-02 -1.9781989275152426e-01 0.0000000000000000e+00  -2.2416525672061548e-02 -2.1570351436471011e-01 0.0000000000000000e+00  3.5599659573499649e-02 -2.0290041592484717e-01 0.0000000000000000e+00  -2.4228175061174965e-02 -2.0667155466883916e-01 0.0000000000000000e+00  3.1139941542790709e-02 -2.0747431490938956e-01 0.0000000000000000e+00  -2.4846987759134041e-02 -2.0595187047124552e-01 0.0000000000000000e+00  2.5144530152633664e-02 -1.9714745367224351e-01 0.0000000000000000e+00  -2.5075639890740627e-02 -1.9069240209994329e-01 0.0000000000000000e+00  2.3446202092692221e-02 -1.7986995075218351e-01 0.0000000000000000e+00  -2.6352164948739269e-02 -1.7514868725072488e-01 0.0000000000000000e+00  1.8826976368042498e-02 -1.6982346213071567e-01 0.0000000000000000e+00  -2.4487388601838338e-02 -1.6594262969600543e-01 0.0000000000000000e+00  1.6080140530890626e-02 -1.5817512840303100e-01 0.0000000000000000e+00  -2.3702926584625961e-02 -1.5132181270753728e-01 0.0000000000000000e+00  1.4743790709017737e-02 -1.4136961981308854e-01 0.0000000000000000e+00  -2.2313403375664193e-02 -1.3765706532881233e-01 0.0000000000000000e+00  1.3947606635314486e-02 -1.3539026322740946e-01 0.0000000000000000e+00  -1.9947124759825449e-02 -1.3139336901004317e-01 0.0000000000000000e+00  1.4425687774108423e-02 -1.3499895685285057e-01 0.0000000000000000e+00  -7.2767170048310898e-03 -1.3005869141134488e-01 0.0000000000000000e+00  -1.7967444266099766e-02 -1.3160808832005841e-01 0.0000000000000000e+00  3.7239929165678708e-03 -1.2328461399651815e-01 0.0000000000000000e+00  -1.5829433571885879e-02 -1.3100562075685726e-01 0.0000000000000000e+00  5.9040090471990988e-03 -1.3609762896479202e-01 0.0000000000000000e+00  -1.4907694403363881e-02 -1.3865230929177710e-01 0.0000000000000000e+00  6.0018806170982321e-03 -1.4070858326364943e-01 0.0000000000000000e+00  -1.3771467383693043e-02 -1.3714671995349756e-01 0.0000000000000000e+00  8.0317021265208892e-03 -1.4655270768309545e-01 0.0000000000000000e+00  -6.0765800816986730e-05 -1.5158461983370500e-01 0.0000000000000000e+00  -3.3510847777823871e-02 -1.6182408399252779e-01 0.0000000000000000e+00  8.0639637683493047e-03 -1.5327733571627347e-01 0.0000000000000000e+00  -3.5642613761316284e-02 -1.5543579015507378e-01 0.0000000000000000e+00  6.0640630020924241e-03 -1.5048355241026926e-01 0.0000000000000000e+00  -3.7173794101013624e-02 -1.4199856131448221e-01 0.0000000000000000e+00  3.6918417961674973e-03 -1.3661919146293017e-01 0.0000000000000000e+00  -2.8446541272893200e-02 -1.1820213595799833e-01 0.0000000000000000e+00  -3.0481883344162040e-02 -9.5444025411087707e-02 0.0000000000000000e+00  -2.6839107732372511e-02 -3.9543229286441869e-02 0.0000000000000000e+00  -2.9518053204132508e-02 -4.8438906201958435e-03 0.0000000000000000e+00  -5.1022287869009413e-02 7.8534106490189229e-02 0.0000000000000000e+00  -6.6350376830363045e-02 1.6686736076741598e-01 0.0000000000000000e+00  -8.4579501699029544e-02 2.2063301421104559e-01 0.0000000000000000e+00  -3.3836720303848330e-03 -9.5469354773248263e-02 0.0000000000000000e+00  -5.8430600400627307e-03 1.0094838916072227e-01 0.0000000000000000e+00  -1.1354622543435521e-03 1.4253149907098597e-01 0.0000000000000000e+00  6.9387282487173938e-03 1.7261667693340640e-01 0.0000000000000000e+00  -3.0041457257797208e-03 -3.1951824164243255e-02 0.0000000000000000e+00  5.5414904840719870e-04 1.7282984193110640e-01 0.0000000000000000e+00  2.3281213612208478e-03 4.3304858593928137e-02 0.0000000000000000e+00  4.5394785609211669e-04 1.6301268996550913e-01 0.0000000000000000e+00  3.7139783592290850e-03 1.1111537616396695e-01 0.0000000000000000e+00  6.9273971372473106e-04 1.2033240820532855e-01 0.0000000000000000e+00  -2.7218315710851944e-03 1.5508887736880830e-01 0.0000000000000000e+00  3.4440697031012566e-03 1.1305839743369724e-01 0.0000000000000000e+00  -8.5599848650899657e-04 1.3185967160913603e-01 0.0000000000000000e+00  -2.9853789754560700e-03 1.1794710848882381e-01 0.0000000000000000e+00  1.7180174813998347e-04 1.0761621721085569e-01 0.0000000000000000e+00  -1.2416190315883613e-03 1.2227203525392843e-01 0.0000000000000000e+00  8.1020484497865456e-04 1.4443612478208301e-01 0.0000000000000000e+00  -1.8876986308930643e-03 1.0449276329211014e-01 0.0000000000000000e+00  -8.7376042042448961e-05 1.1292733386751989e-01 0.0000000000000000e+00  -8.5331878666905915e-04 1.0091879219593927e-01 0.0000000000000000e+00  -3.4487891461580937e-03 1.0623514230802072e-01 0.0000000000000000e+00  1.5459773131477851e-03 8.5002056261912221e-02 0.0000000000000000e+00  -7.8695084168759757e-04 9.6687905462018900e-02 0.0000000000000000e+00  -2.2614729426200077e-03 1.4290202143962569e-01 0.0000000000000000e+00  1.7998401381371352e-03 7.7276242691860023e-02 0.0000000000000000e+00  1.0233471105125102e-02 1.0605514565400274e-01 0.0000000000000000e+00  -3.0222617853783131e-02 -7.0750154592280984e-02 0.0000000000000000e+00  -3.6562688111644740e-03 1.1565877713677224e-01 0.0000000000000000e+00  -6.0658089318818961e-03 1.2440701852119326e-01 0.0000000000000000e+00  2.2239533891952028e-02 2.0481040353647995e-02 0.0000000000000000e+00  -3.0599447433128923e-03 8.3038101369582548e-02 0.0000000000000000e+00  -3.4639841191506432e-03 9.4415140470444706e-02 0.0000000000000000e+00  -1.4018576170425606e-03 1.0834317696903339e-01 0.0000000000000000e+00  -6.1170467678992018e-03 7.7390432671062243e-02 0.0000000000000000e+00  -6.2877126611858743e-04 8.6238347543669200e-02 0.0000000000000000e+00  -3.7714980478802655e-04 8.2655435899453469e-02 0.0000000000000000e+00  -1.9193220752766634e-03 7.5709618163921646e-02 0.0000000000000000e+00  -1.4013159964018430e-03 8.2996594668407961e-02 0.0000000000000000e+00  -2.6752165597538021e-03 1.0762931685169140e-01 0.0000000000000000e+00  1.4607959250267804e-03 8.0037989971131596e-02 0.0000000000000000e+00  9.7164628902423440e-04 7.3814769261006816e-02 0.0000000000000000e+00  -2.2112417220911014e-02 -1.1343686736210121e-01 0.0000000000000000e+00  2.1946974199903001e-02 -1.0900539671497511e-01 0.0000000000000000e+00  -4.8766614177470219e-02 7.1563525622349841e-02 0.0000000000000000e+00  2.4366585957544210e-02 -7.1828202860610937e-02 