<?xml version="1.0"?>
<VTKFile type="UnstructuredGrid"  version="0.1"  >
<UnstructuredGrid>
<Piece  NumberOfPoints="1419" NumberOfCells="2698">
<Points>
<DataArray  type="Float64"  NumberOfComponents="3"  format="ascii">1.155841154323388e-07 -2.499161108607242e-06 0  1.440700565043605e-07 0.4099974901027398 0  2.500000299255968 -3.790505575297522e-06 0  2.500000299256006 0.4099962094944585 0  0.6000003342225686 0.1899960882109722 0  0.6000003706320256 0.2099960851439275 0  0.25 0.2 0  0.1500001280319949 0.1999975198799615 0  0.2489897948556636 0.21 0  0.2489897948556636 0.19 0  0.600000361591203 0.1999960731207608 0  1.437174009318162e-07 0.3807117765948833 0  1.427175813220641e-07 0.3514260644236286 0  1.410568877196986e-07 0.3221403532695142 0  1.387674689623998e-07 0.2928546424457899 0  1.359810130802727e-07 0.2635689314279531 0  1.3281459600848e-07 0.2342832198658925 0  1.294141428808872e-07 0.2049975072334405 0  1.260455924468567e-07 0.1757117936288669 0  1.229533082453443e-07 0.1464260789599429 0  1.202817284364147e-07 0.117140363430944 0  1.18228583973679e-07 0.08785464737120399 0  1.167352966369752e-07 0.05856893125254074 0  1.158608368542129e-07 0.0292832156000254 0  0.03015455289559667 -2.499695915836306e-06 0  0.06140013421588338 -2.501630260500276e-06 0  0.09377635351697156 -2.506002799556941e-06 0  0.1273241063296823 -2.514626135378182e-06 0  0.1620857941623539 -2.530760983877907e-06 0  0.1981053494115858 -2.562445234772879e-06 0  0.2354282898396433 -2.621832156339291e-06 0  0.2741017661330168 -2.717159260918786e-06 0  0.3141746675039149 -2.850173016830959e-06 0  0.3556976207432687 -3.016887097529217e-06 0  0.3987231006986948 -3.197590365164634e-06 0  0.4433054758136028 -3.370637036971872e-06 0  0.4895010738740062 -3.520834272754905e-06 0  0.5373682869275295 -3.635059952817577e-06 0  0.5869675848191364 -3.710117703500882e-06 0  0.638361637045312 -3.755050913096701e-06 0  0.6916153955154779 -3.776837160739429e-06 0  0.746796148567902 -3.786267292709736e-06 0  0.8039736397425097 -3.790021592097052e-06 0  0.8632201097909286 -3.791206424171361e-06 0  0.924610429967495 -3.791355481436641e-06 0  0.9882221791730066 -3.791176172128533e-06 0  1.054135744135457 -3.790972096144747e-06 0  1.122434399396359 -3.790805898594679e-06 0  1.193204476168779 -3.790686096039717e-06 0  1.26653538900816 -3.790609878822747e-06 0  1.342519815230908 -3.790565094636996e-06 0  1.421253747720681 -3.790538581475644e-06 0  1.502836688341628 -3.790523027075521e-06 0  1.587371739004126 -3.790514649896264e-06 0  1.674965718027889 -3.79051021573702e-06 0  1.765729301078834 -3.790507855577581e-06 0  1.859777208134734 -3.790506695238879e-06 0  1.957228276742429 -3.790506086785682e-06 0  2.058205629125636 -3.790505809782805e-06 0  2.16283689044581 -3.790505668412949e-06 0  2.271254256546792 -3.790505608507952e-06 0  2.383594746059383 -3.790505582870606e-06 0  2.500000299255972 0.1024962094941907 0  2.500000299255988 0.2049962094939156 0  2.500000299256001 0.3074962094941719 0  2.383594746059672 0.4099962094944658 0  2.27125425654736 0.4099962094944924 0  2.162836890446719 0.409996209494555 0  2.058205629127053 0.4099962094946898 0  1.957228276744666 0.4099962094949639 0  1.859777208138594 0.4099962094956021 0  1.765729301085556 0.4099962094967588 0  1.674965718040394 0.4099962094992166 0  1.587371739027177 0.4099962095036628 0  1.502836688384554 0.4099962095121318 0  1.421253747801154 0.4099962095285004 0  1.342519815375184 0.4099962095563019 0  1.266535389262066 0.4099962096048986 0  1.193204476619136 0.4099962096963118 0  1.122434400178289 0.4099962098600278 0  1.054135745431025 0.4099962101333181 0  0.9882221813388861 0.4099962106728411 0  0.9246104334599726 0.4099962116609529 0  0.8632201153915918 0.4099962135477316 0  0.8039736485071571 0.4099962173140861 0  0.7467961619567276 0.4099962248661227 0  0.6916154151447084 0.4099962396098831 0  0.6383616645317717 0.4099962684866795 0  0.5869676217140293 0.4099963186454135 0  0.5373683331745053 0.4099963972592639 0  0.4895011287140671 0.4099965110481669 0  0.4433055383865589 0.4099966545846574 0  0.3987231691765334 0.4099968173486834 0  0.3556976923420302 0.4099969849362477 0  0.3141747391389779 0.4099971397633345 0  0.2741018339313681 0.4099972668203318 0  0.2354283516221806 0.4099973572172363 0  0.198105403748252 0.4099974162081988 0  0.1620858409075193 0.4099974506291262 0  0.1273241464091488 0.4099974697404232 0  0.09377638835000217 0.4099974807197687 0  0.06140016543029543 0.4099974864120497 0  0.03015458199495681 0.4099974893657503 0  0.2497468076502589 0.2050254481002335 0  0.2497468076502614 0.1949745518997913 0  0.246996549271624 0.1829305148188794 0  0.2439894147775601 0.1762300145071588 0  0.2400332690104948 0.1700424570263894 0  0.235213461516483 0.1645012421730693 0  0.229633974140465 0.1597258639407092 0  0.2234151768131045 0.1558193281462837 0  0.2166912315684811 0.1528659009707933 0  0.20960719809957 0.1509292911464434 0  0.2023159047312451 0.1500512703128672 0  0.1949746505333397 0.1502507793744287 0  0.1877418128251355 0.1515235098626969 0  0.1807734296463185 0.1538420032798984 0  0.1742198340542277 0.157156239256934 0  0.168222410391362 0.1613947172930962 0  0.162910544628971 0.1664659970986431 0  0.1583988325653178 0.1722606728231918 0  0.1547846080449591 0.1786537320978543 0  0.1521458427145535 0.1855072537383892 0  0.1505394642973865 0.1926733826271434 0  0.1505394694475896 0.2073216577491543 0  0.1521458530656271 0.2144877885664781 0  0.1547846234845758 0.2213413135500749 0  0.1583988531739814 0.2277343779994606 0  0.1629105703222977 0.2335290610649441 0  0.1682224412633779 0.2386003514566877 0  0.1742198699927407 0.2428388437241173 0  0.180773470745281 0.2461530994293654 0  0.1877418590384089 0.2484716199360521 0  0.1949747018960593 0.2497443876987344 0  0.2023159611794551 0.2499439459466304 0  0.2096072597474255 0.2490659935908762 0  0.2166912982026732 0.2471294736292862 0  0.2234152483690683 0.2441761714482732 0  0.2296340504463126 0.2402698043067125 0  0.2352135418716346 0.2354946628218791 0  0.2400333521793889 0.2299537763712829 0  0.2439894972280948 0.2237667306521212 0  0.2469966207666171 0.2170670944637939 0  0.2564582033912511 0.2099988475120347 0  0.2639265370013684 0.209998462549992 0  0.2713948727301022 0.209998213615186 0  0.2788631807349256 0.2099980172833254 0  0.2863314917628214 0.2099978507717457 0  0.2937997926518809 0.2099977063366812 0  0.3012680969371659 0.2099975781557248 0  0.3087363979454385 0.2099974642932128 0  0.3162047034771497 0.2099973586700353 0  0.3236730036195142 0.2099972613629948 0  0.3311413114600664 0.2099971713283926 0  0.3386096111099755 0.2099970880379796 0  0.3460779191144634 0.2099970068001979 0  0.3535462197832822 0.2099969206337064 0  0.361014519599123 0.2099968696615349 0  0.3684828247120089 0.2099968129383461 0  0.3759511194735729 0.2099967537907849 0  0.3834194223679181 0.2099966974586864 0  0.3908877149419504 0.2099966421564491 0  0.3983560168421452 0.2099965881420923 0  0.4058243071090506 0.2099965354069256 0  0.4132926079240159 0.2099964765696791 0  0.4207608957682944 0.2099964059731154 0  0.4282291945911404 0.2099963749783514 0  0.4356975019717808 0.2099963283750361 0  0.4431658024684181 0.2099962884980255 0  0.450634117027567 0.2099962404348296 0  0.4581024228856913 0.2099962048851863 0  0.4655707477118084 0.209996160982611 0  0.4730390584815618 0.2099961238855764 0  0.4805073852325171 0.209996108637644 0  0.4879756974652948 0.2099960981245633 0  0.4954440366423196 0.2099960265512993 0  0.5029123498560927 0.2099960035366996 0  0.5103806878148068 0.2099960412658576 0  0.5178489981244755 0.2099960233408416 0  0.5253173214127559 0.2099960042190863 0  0.5327856315030833 0.2099959911999063 0  0.5402539594920218 0.2099959867703678 0  0.5477222710031219 0.2099959844939161 0  0.5551905946597701 0.2099959898229972 0  0.5626589045525668 0.2099959767752685 0  0.570127197141734 0.2099960112440036 0  0.5775955022851675 0.2099960358004727 0  0.5850637958874096 0.2099960403268734 0  0.5925320920703617 0.2099960564801982 0  0.6000003726321845 0.2049960743013628 0  0.6000003442044682 0.1949960811676274 0  0.5925320334783808 0.1899960672392003 0  0.5850637372226679 0.1899960402008265 0  0.5775954257273046 0.1899960154124534 0  0.5701271238693808 0.1899959915511651 0  0.5626588140357811 0.1899959590058296 0  0.5551904992817422 0.1899959644998491 0  0.5477221961398454 0.1899959577151221 0  0.5402538735482325 0.1899959532262996 0  0.5327855687792427 0.1899959558211747 0  0.5253172440868813 0.1899959627275351 0  0.5178489392380999 0.1899959694532671 0  0.5103806200675907 0.1899959724703293 0  0.5029123091406139 0.1899959774926553 0  0.4954439667989755 0.1899959948336553 0  0.4879756558447481 0.189996024341806 0  0.480507334892418 0.1899960563961932 0  0.4730390284941115 0.1899960866598455 0  0.4655707000708951 0.1899961197953263 0  0.458102395144474 0.1899961590089459 0  0.4506340752392344 0.1899962037576229 0  0.4431657729886691 0.1899962513282528 0  0.4356974551051542 0.1899963009540889 0  0.4282291524874712 0.1899963492446768 0  0.4207608403636534 0.189996387168813 0  0.413292532424235 0.189996457272234 0  0.4058242329079597 0.1899965203431221 0  0.3983559243820611 0.1899965783865587 0  0.3908876236438936 0.1899966363997978 0  0.3834193147782222 0.189996694253742 0  0.3759510130700471 0.1899967527821431 0  0.36848270476224 0.1899968125577631 0  0.3610144040804616 0.1899968704103877 0  0.3535460954728042 0.1899969246775439 0  0.3460777859925422 0.1899970096229171 0  0.3386094834946058 0.1899970923238408 0  0.3311411745710419 0.1899971768434535 0  0.3236728740040719 0.1899972665128619 0  0.3162045687487709 0.1899973635036292 0  0.3087362692551553 0.1899974674788964 0  0.3012679663966878 0.1899975806790819 0  0.2937996649088166 0.1899977094984848 0  0.2863313578309518 0.1899978529928035 0  0.278863053895002 0.1899980148562019 0  0.2713947276126236 0.1899982198218924 0  0.2639264130718385 0.1899984874150543 0  0.2564580958947619 0.1899
[...]
<PointData  Vectors="f_30-0"> 
<DataArray  type="Float64"  Name="f_30-0"  NumberOfComponents="3" format="ascii">0.0000000000000000e+00 0.0000000000000000e+00 0.0000000000000000e+00  0.0000000000000000e+00 0.0000000000000000e+00 0.0000000000000000e+00  0.0000000000000000e+00 0.0000000000000000e+00 0.0000000000000000e+00  0.0000000000000000e+00 0.0000000000000000e+00 0.0000000000000000e+00  6.0077086788905325e-02 -1.2695368393868134e-01 0.0000000000000000e+00  1.3563167589121533e-01 -1.1666610038579207e-01 0.0000000000000000e+00  0.0000000000000000e+00 0.0000000000000000e+00 0.0000000000000000e+00  0.0000000000000000e+00 0.0000000000000000e+00 0.0000000000000000e+00  0.0000000000000000e+00 0.0000000000000000e+00 0.0000000000000000e+00  0.0000000000000000e+00 0.0000000000000000e+00 0.0000000000000000e+00  2.1991307742855612e-01 -2.6252594951996450e-01 0.0000000000000000e+00  0.0000000000000000e+00 0.0000000000000000e+00 0.0000000000000000e+00  0.0000000000000000e+00 0.0000000000000000e+00 0.0000000000000000e+00  0.0000000000000000e+00 0.0000000000000000e+00 0.0000000000000000e+00  0.0000000000000000e+00 0.0000000000000000e+00 0.0000000000000000e+00  0.0000000000000000e+00 0.0000000000000000e+00 0.0000000000000000e+00  0.0000000000000000e+00 0.0000000000000000e+00 0.0000000000000000e+00  0.0000000000000000e+00 0.0000000000000000e+00 0.0000000000000000e+00  0.0000000000000000e+00 0.0000000000000000e+00 0.0000000000000000e+00  0.0000000000000000e+00 0.0000000000000000e+00 0.0000000000000000e+00  0.0000000000000000e+00 0.0000000000000000e+00 0.0000000000000000e+00  0.0000000000000000e+00 0.0000000000000000e+00 0.0000000000000000e+00  0.0000000000000000e+00 0.0000000000000000e+00 0.0000000000000000e+00  0.0000000000000000e+00 0.0000000000000000e+00 0.0000000000000000e+00  0.0000000000000000e+00 0.0000000000000000e+00 0.0000000000000000e+00  0.0000000000000000e+00 0.0000000000000000e+00 0.0000000000000000e+00  0.0000000000000000e+00 0.0000000000000000e+00 0.0000000000000000e+00  0.0000000000000000e+00 0.0000000000000000e+00 0.0000000000000000e+00  0.0000000000000000e+00 0.0000000000000000e+00 0.0000000000000000e+00  0.0000000000000000e+00 0.0000000000000000e+00 0.0000000000000000e+00  0.0000000000000000e+00 0.0000000000000000e+00 0.0000000000000000e+00  0.0000000000000000e+00 0.0000000000000000e+00 0.0000000000000000e+00  0.0000000000000000e+00 0.0000000000000000e+00 0.0000000000000000e+00  0.0000000000000000e+00 0.0000000000000000e+00 0.0000000000000000e+00  0.0000000000000000e+00 0.0000000000000000e+00 0.0000000000000000e+00  0.0000000000000000e+00 0.0000000000000000e+00 0.0000000000000000e+00  0.0000000000000000e+00 0.0000000000000000e+00 0.0000000000000000e+00  0.0000000000000000e+00 0.0000000000000000e+00 0.0000000000000000e+00  0.0000000000000000e+00 0.0000000000000000e+00 0.0000000000000000e+00  0.0000000000000000e+00 0.0000000000000000e+00 0.0000000000000000e+00  0.0000000000000000e+00 0.0000000000000000e+00 0.0000000000000000e+00  0.0000000000000000e+00 0.0000000000000000e+00 0.0000000000000000e+00  0.0000000000000000e+00 0.0000000000000000e+00 0.0000000000000000e+00  0.0000000000000000e+00 0.0000000000000000e+00 0.0000000000000000e+00  0.0000000000000000e+00 0.0000000000000000e+00 0.0000000000000000e+00  0.0000000000000000e+00 0.0000000000000000e+00 0.0000000000000000e+00  0.0000000000000000e+00 0.0000000000000000e+00 0.0000000000000000e+00  0.0000000000000000e+00 0.0000000000000000e+00 0.0000000000000000e+00  0.0000000000000000e+00 0.0000000000000000e+00 0.0000000000000000e+00  0.0000000000000000e+00 0.0000000000000000e+00 0.0000000000000000e+00  0.0000000000000000e+00 0.0000000000000000e+00 0.0000000000000000e+00  0.0000000000000000e+00 0.0000000000000000e+00 0.0000000000000000e+00  0.0000000000000000e+00 0.0000000000000000e+00 0.0000000000000000e+00  0.0000000000000000e+00 0.0000000000000000e+00 0.0000000000000000e+00  0.0000000000000000e+00 0.0000000000000000e+00 0.0000000000000000e+00  0.0000000000000000e+00 0.0000000000000000e+00 0.0000000000000000e+00  0.0000000000000000e+00 0.0000000000000000e+00 0.0000000000000000e+00  0.0000000000000000e+00 0.0000000000000000e+00 0.0000000000000000e+00  0.0000000000000000e+00 0.0000000000000000e+00 0.0000000000000000e+00  0.0000000000000000e+00 0.0000000000000000e+00 0.0000000000000000e+00  0.0000000000000000e+00 0.0000000000000000e+00 0.0000000000000000e+00  0.0000000000000000e+00 0.0000000000000000e+00 0.0000000000000000e+00  1.0298848543212593e-08 3.6115588496951752e-09 0.0000000000000000e+00  -2.1887854769889438e-10 5.2521803961332376e-09 0.0000000000000000e+00  -1.0588345135089269e-08 4.0987803661145556e-09 0.0000000000000000e+00  0.0000000000000000e+00 0.0000000000000000e+00 0.0000000000000000e+00  0.0000000000000000e+00 0.0000000000000000e+00 0.0000000000000000e+00  0.0000000000000000e+00 0.0000000000000000e+00 0.0000000000000000e+00  0.0000000000000000e+00 0.0000000000000000e+00 0.0000000000000000e+00  0.0000000000000000e+00 0.0000000000000000e+00 0.0000000000000000e+00  0.0000000000000000e+00 0.0000000000000000e+00 0.0000000000000000e+00  0.0000000000000000e+00 0.0000000000000000e+00 0.0000000000000000e+00  0.0000000000000000e+00 0.0000000000000000e+00 0.0000000000000000e+00  0.0000000000000000e+00 0.0000000000000000e+00 0.0000000000000000e+00  0.0000000000000000e+00 0.0000000000000000e+00 0.0000000000000000e+00  0.0000000000000000e+00 0.0000000000000000e+00 0.0000000000000000e+00  0.0000000000000000e+00 0.0000000000000000e+00 0.0000000000000000e+00  0.0000000000000000e+00 0.0000000000000000e+00 0.0000000000000000e+00  0.0000000000000000e+00 0.0000000000000000e+00 0.0000000000000000e+00  0.0000000000000000e+00 0.0000000000000000e+00 0.0000000000000000e+00  0.0000000000000000e+00 0.0000000000000000e+00 0.0000000000000000e+00  0.0000000000000000e+00 0.0000000000000000e+00 0.0000000000000000e+00  0.0000000000000000e+00 0.0000000000000000e+00 0.0000000000000000e+00  0.0000000000000000e+00 0.0000000000000000e+00 0.0000000000000000e+00  0.0000000000000000e+00 0.0000000000000000e+00 0.0000000000000000e+00  0.0000000000000000e+00 0.0000000000000000e+00 0.0000000000000000e+00  0.0000000000000000e+00 0.0000000000000000e+00 0.0000000000000000e+00  0.0000000000000000e+00 0.0000000000000000e+00 0.0000000000000000e+00  0.0000000000000000e+00 0.0000000000000000e+00 0.0000000000000000e+00  0.0000000000000000e+00 0.0000000000000000e+00 0.0000000000000000e+00  0.0000000000000000e+00 0.0000000000000000e+00 0.0000000000000000e+00  0.0000000000000000e+00 0.0000000000000000e+00 0.0000000000000000e+00  0.0000000000000000e+00 0.0000000000000000e+00 0.0000000000000000e+00  0.0000000000000000e+00 0.0000000000000000e+00 0.0000000000000000e+00  0.0000000000000000e+00 0.0000000000000000e+00 0.0000000000000000e+00  0.0000000000000000e+00 0.0000000000000000e+00 0.0000000000000000e+00  0.0000000000000000e+00 0.0000000000000000e+00 0.0000000000000000e+00  0.0000000000000000e+00 0.0000000000000000e+00 0.0000000000000000e+00  0.0000000000000000e+00 0.0000000000000000e+00 0.0000000000000000e+00  0.0000000000000000e+00 0.0000000000000000e+00 0.0000000000000000e+00  0.0000000000000000e+00 0.0000000000000000e+00 0.0000000000000000e+00  0.0000000000000000e+00 0.0000000000000000e+00 0.0000000000000000e+00  0.0000000000000000e+00 0.0000000000000000e+00 0.0000000000000000e+00  0.0000000000000000e+00 0.0000000000000000e+00 0.0000000000000000e+00  0.0000000000000000e+00 0.0000000000000000e+00 0.0000000000000000e+00  0.0000000000000000e+00 0.0000000000000000e+00 0.0000000000000000e+00  0.0000000000000000e+00 0.0000000000000000e+00 0.0000000000000000e+00  0.0000000000000000e+00 0.0000000000000000e+00 0.0000000000000000e+00  0.0000000000000000e+00 0.0000000000000000e+00 0.0000000000000000e+00  0.0000000000000000e+00 0.0000000000000000e+00 0.0000000000000000e+00  0.0000000000000000e+00 0.0000000000000000e+00 0.0000000000000000e+00  0.0000000000000000e+00 0.0000000000000000e+00 0.0000000000000000e+00  0.0000000000000000e+00 0.0000000000000000e+00 0.0000000000000000e+00  0.0000000000000000e+00 0.0000000000000000e+00 0.0000000000000000e+00  0.0000000000000000e+00 0.0000000000000000e+00 0.0000000000000000e+00  0.0000000000000000e+00 0.0000000000000000e+00 0.0000000000000000e+00  0.0000000000000000e+00 0.0000000000000000e+00 0.0000000000000000e+00  0.0000000000000000e+00 0.0000000000000000e+00 0.0000000000000000e+00  0.0000000000000000e+00 0.0000000000000000e+00 0.0000000000000000e+00  0.0000000000000000e+00 0.0000000000000000e+00 0.0000000000000000e+00  0.0000000000000000e+00 0.0000000000000000e+00 0.0000000000000000e+00  0.0000000000000000e+00 0.0000000000000000e+00 0.0000000000000000e+00  0.0000000000000000e+00 0.0000000000000000e+00 0.0000000000000000e+00  0.0000000000000000e+00 0.0000000000000000e+00 0.0000000000000000e+00  0.0000000000000000e+00 0.0000000000000000e+00 0.0000000000000000e+00  0.0000000000000000e+00 0.0000000000000000e+00 0.0000000000000000e+00  0.0000000000000000e+00 0.0000000000000000e+00 0.0000000000000000e+00  0.0000000000000000e+00 0.0000000000000000e+00 0.0000000000000000e+00  0.0000000000000000e+00 0.0000000000000000e+00 0.0000000000000000e+00  0.0000000000000000e+00 0.0000000000000000e+00 0.0000000000000000e+00  0.0000000000000000e+00 0.0000000000000000e+00 0.0000000000000000e+00  0.0000000000000000e+00 0.0000000000000000e+00 0.0000000000000000e+00  0.0000000000000000e+00 0.0000000000000000e+00 0.0000000000000000e+00  0.0000000000000000e+00 0.0000000000000000e+00 0.0000000000000000e+00  0.0000000000000000e+00 0.0000000000000000e+00 0.0000000000000000e+00  0.0000000000000000e+00 0.0000000000000000e+00 0.0000000000000000e+00  0.0000000000000000e+00 0.0000000000000000e+00 0.0000000000000000e+00  0.0000000000000000e+00 0.0000000000000000e+00 0.0000000000000000e+00  0.0000000000000000e+00 0.0000000000000000e+00 0.0000000000000000e+00  0.0000000000000000e+00 0.0000000000000000e+00 0.0000000000000000e+00  0.0000000000000000e+00 0.0000000000000000e+00 0.0000000000000000e+00  0.0000000000000000e+00 0.0000000000000000e+00 0.0000000000000000e+00  0.0000000000000000e+00 0.0000000000000000e+00 0.0000000000000000e+00  1.0522476819239211e-01 7.2472427644181336e-01 0.0000000000000000e+00  7.4181915511967608e-02 6.7162323559948978e-01 0.0000000000000000e+00  2.4192528058087179e-01 5.3553128915587112e-01 0.0000000000000000e+00  1.1028359610367926e-01 3.2829434554106984e-01 0.0000000000000000e+00  1.4272832933419388e-01 1.9875883451594559e-01 0.0000000000000000e+00  5.9809222219034931e-02 7.0910250986766787e-02 0.0000000000000000e+00  7.7047911262056706e-02 -1.4826750212391528e-02 0.0000000000000000e+00  1.2199517075849627e-02 -1.0657170155372760e-01 0.0000000000000000e+00  4.6581311769359167e-02 -1.7482490380076868e-01 0.0000000000000000e+00  -1.0287805227931223e-02 -2.0919988228848832e-01 0.0000000000000000e+00  4.3741639798887497e-02 -2.7313742434037269e-01 0.0000000000000000e+00  -1.6320483928804742e-02 -2.7689470565496893e-01 0.0000000000000000e+00  6.4233662237003733e-02 -3.3663696111895647e-01 0.0000000000000000e+00  1.7256426405319016e-02 -3.6589502638927096e-01 0.0000000000000000e+00  6.8420063578140070e-03 -3.3605286241745841e-01 0.0000000000000000e+00  3.9409911866367692e-02 -2.9747846930752320e-01 0.0000000000000000e+00  -7.3914294525084349e-03 -3.2926053660389204e-01 0.0000000000000000e+00  2.6763921975089484e-02 -3.1780287676413482e-01 0.0000000000000000e+00  -3.3818353651327474e-02 -3.2515913757678372e-01 0.0000000000000000e+00  1.3534768394690769e-02 -3.6056042636372604e-01 0.0000000000000000e+00  -8.5757390228459060e-02 -3.3441867926603669e-01 0.0000000000000000e+00  7.7626867252692695e-03 -4.0375762024174078e-01 0.0000000000000000e+00  -1.0646079237137480e-01 -4.4544565483081816e-01 0.0000000000000000e+00  -1.4475228484210431e-01 -4.2635546243562883e-01 0.0000000000000000e+00  -1.2514881637289321e-01 -6.3397217077096657e-01 0.0000000000000000e+00  -1.5944164286273935e-01 -5.2507782055370344e-01 0.0000000000000000e+00  -1.2908508786041911e-01 -7.3407636365092255e-01 0.0000000000000000e+00  -2.1077972456337210e-01 -6.2055681410126040e-01 0.0000000000000000e+00  -4.6525378286099454e-03 -8.0034389115997406e-01 0.0000000000000000e+00  -1.5742432892326691e-01 -9.3710249334267792e-01 0.0000000000000000e+00  -4.6793599365799084e-02 -7.0488855242582937e-01 0.0000000000000000e+00  -1.8739680905881817e-01 -2.5883303264879237e-01 0.0000000000000000e+00  2.9249502189852911e-01 -1.1412141989717881e+00 0.0000000000000000e+00  -2.3957711895443692e-01 -1.2692489075148281e+00 0.0000000000000000e+00  2.0705035501609506e-01 -2.7898730868515115e-01 0.0000000000000000e+00  6.7052395382416488e-02 -5.4653408871395615e-01 0.0000000000000000e+00  1.2404145527407334e-01 -6.6211758704722123e-01 0.0000000000000000e+00  -1.0838867620641379e-02 -7.6578040003725278e-01 0.0000000000000000e+00  2.0321073886677093e-01 -7.2603139635661440e-01 0.0000000000000000e+00  9.9601097868667887e-02 -7.2496921110608692e-01 0.0000000000000000e+00  2.4010550620511872e-01 -4.8386648159733742e-01 0.0000000000000000e+00  1.7769809310342444e-01 -5.0215471051792715e-01 0.0000000000000000e+00  1.0851003396880415e-01 -4.3665324814814999e-01 0.0000000000000000e+00  2.0642852651663662e-01 -2.6403841937534472e-01 0.0000000000000000e+00  1.7516401577719806e-01 -4.9505139872543408e-01 0.0000000000000000e+00  3.4239442615999294e-01 -5.4961555154729813e-01 0.0000000000000000e+00  3.2862854140216069e-01 -3.4988917187788615e-01 0.0000000000000000e+00  6.4659937963993899e-02 -2.0490636681749072e-01 0.0000000000000000e+00  9.1335436455009342e-02 -2.3303069026786993e-01 0.0000000000000000e+00  1.8530299831741234e-01 -3.1862430473267295e-01 0.0000000000000000e+00  6.9703287045304999e-02 -3.6362061770327564e-01 0.0000000000000000e+00  1.5955738743405873e-01 -4.4753641985951581e-01 0.0000000000000000e+00  8.9731917457387636e-02 -4.4420436311483441e-01 0.0000000000000000e+00  3.9278101293163038e-02 -5.0959671839476728e-01 0.0000000000000000e+00  1.8693217385735961e-01 -5.5862716495367493e-01 0.0000000000000000e+00  -7.1984244038676235e-03 -5.9939668069156282e-01 0.0000000000000000e+00  1.2693855918073488e-01 -6.0916528087979382e-01 0.0000000000000000e+00  -6.2768410047643428e-02 -5.9097259953863668e-01 0.0000000000000000e+00  1.4061979835274954e-01 -5.7559105595386295e-01 0.0000000000000000e+00  6.1113919256572891e-02 -6.2776530025919508e-01 0.0000000000000000e+00  1.9989992266852594e-01 -7.6073195692075013e-01 0.0000000000000000e+00  -1.7435935744122766e-01 -7.6012379993979229e-01 0.0000000000000000e+00  -1.4371342871700573e-02 -6.5153005560889998e-01 0.0000000000000000e+00  -1.0496093319239232e-01 -6.3265401969980173e-01 0.0000000000000000e+00  8.1732130678809287e-02 -6.6798467405143580e-01 0.0000000000000000e+00  -1.5134305014416616e-01 -6.6367855433558764e-01 0.0000000000000000e+00  -2.4755079869363799e-03 -6.1556079525580820e-01 0.0000000000000000e+00  -1.5387389265158949e-01 -5.7875576889082114e-01 0.0000000000000000e+00  -5.0073735756020615e-03 -5.3764238675113130e-01 0.0000000000000000e+00  -1.4631618184757758e-01 -4.9543742640520883e-01 0.0000000000000000e+00  -1.6736852510413087e-02 -4.5950658800657301e-01 0.0000000000000000e+00  -6.7282843089254751e-02 -4.1982973252014771e-01 0.0000000000000000e+00  -1.0721300156851367e-01 -4.1451475701050616e-01 0.0000000000000000e+00  -3.0728253724140845e-02 -3.5635168657028077e-01 0.0000000000000000e+00  -8.4708927157856911e-02 -3.5359594788689919e-01 0.0000000000000000e+00  -1.2488470588746799e-02 -3.4357867764775746e-01 0.0000000000000000e+00  -7.1180103032886452e-02 -3.3908030622900409e-01 0.0000000000000000e+00  -1.0942094641795123e-02 -3.3146309595264534e-01 0.0000000000000000e+00  -6.1421855514292967e-02 -3.2034737300264926e-01 0.0000000000000000e+00  -1.2182712114590492e-03 -3.3041102628400726e-01 0.0000000000000000e+00  -2.4072975710665724e-02 -3.2554824995374909e-01 0.0000000000000000e+00  -9.6232380746125418e-02 -3.3273963442835308e-01 0.0000000000000000e+00  -1.9304802057889106e-02 -2.8598697156490932e-01 0.0000000000000000e+00  -1.0048639326364790e-01 -2.6542269266198570e-01 0.0000000000000000e+00  -3.2253019716836202e-02 -2.2068402087059300e-01 0.0000000000000000e+00  -8.4071443199754223e-02 -1.7935563659388762e-01 0.0000000000000000e+00  -3.0024522685847418e-02 -1.1561085613483624e-01 0.0000000000000000e+00  -6.1729891666747798e-02 -4.0956833441400033e-02 0.0000000000000000e+00  -2.7650579645833889e-03 6.5656019020475326e-02 0.0000000000000000e+00  -2.1945471375109906e-02 1.8892924374304265e-01 0.0000000000000000e+00  7.3864794992107755e-02 2.2615249377290039e-01 0.0000000000000000e+00  -1.2673725062941668e-01 5.5018971775537417e-01 0.0000000000000000e+00  -2.5445906376581701e-01 1.0268569750733305e+00 0.0000000000000000e+00  -2.4095431446005910e-01 7.2557062070975320e-01 0.0000000000000000e+00  -5.5678883238504213e-03 -4.7607039495646525e-01 0.0000000000000000e+00  -1.1890267017303755e-02 2.5048872822274865e-01 0.0000000000000000e+00  7.7045580591457649e-03 3.0052979312496719e-01 0.0000000000000000e+00  2.6360496987403283e-03 4.6374082790565335e-01 0.0000000000000000e+00  -8.4566452271138209e-02 -3.4882031494911264e-01 0.0000000000000000e+00  2.8184060475055412e-02 5.2172517885238801e-01 0.0000000000000000e+00  2.0050082039265262e-02 -1.3316986429269223e-01 0.0000000000000000e+00  1.0933922017526884e-01 4.8981632173111728e-01 0.0000000000000000e+00  4.6147905697710443e-03 1.1517802652761933e-01 0.0000000000000000e+00  -5.9035251509073118e-04 1.9070323158343963e-01 0.0000000000000000e+00  -2.5836709438489569e-01 5.9008982845224200e-01 0.0000000000000000e+00  4.2157622068473470e-03 2.6071889172478024e-01 0.0000000000000000e+00  -1.3610410135124318e-01 5.7093237637857097e-01 0.0000000000000000e+00  -3.5837424380410149e-03 2.2684507691403910e-01 0.0000000000000000e+00  -2.7496391457151421e-03 2.6281873014997820e-01 0.0000000000000000e+00  1.9983399827620592e-02 5.3263405461941449e-01 0.0000000000000000e+00  2.5758907306512663e-01 5.7441549282231552e-01 0.0000000000000000e+00  -1.5097486332987102e-02 2.7722864390231788e-01 0.0000000000000000e+00  -2.1639300713918109e-02 4.7250598184178799e-01 0.0000000000000000e+00  -1.7705344549907528e-03 2.9594891077495616e-01 0.0000000000000000e+00  -1.7555967712984046e-02 3.9847375439077992e-01 0.0000000000000000e+00  1.1400008224988328e-02 2.7949082674257397e-01 0.0000000000000000e+00  -1.7486240351031543e-04 2.1527213225806333e-01 0.0000000000000000e+00  -1.0284604495598653e-02 3.1911021499313491e-01 0.0000000000000000e+00  3.2445343776267349e-03 2.4894598185953111e-02 0.0000000000000000e+00  -8.1697304355269444e-03 2.1683926961266189e-01 0.0000000000000000e+00  -1.1660901621435073e-01 -4.5486834090111800e-01 0.0000000000000000e+00  1.8523746880650338e-02 3.5075162416517847e-01 0.0000000000000000e+00  -3.3136377473715152e-02 3.7742372584178385e-01 0.0000000000000000e+00  1.8012330465447136e-02 -1.5686358314417570e-01 0.0000000000000000e+00  2.1593738209011882e-02 1.1623078026450052e-01 0.0000000000000000e+00  3.7146967234223574e-02 3.2851779716556490e-01 0.0000000000000000e+00  -5.1892876126877076e-02 2.9981623685414438e-01 0.0000000000000000e+00  -9.5302296061923735e-03 1.8641554669914023e-01 0.0000000000000000e+00  -9.7338922620354377e-03 4.1219131305161660e-01 0.0000000000000000e+00  1.9628681497764849e-02 1.4901274810860432e-01 0.0000000000000000e+00  4.3425112052529304e-03 1.9271340472438966e-01 0.0000000000000000e+00  1.9221215637037263e-02 3.6430360984820459e-01 0.0000000000000000e+00  3.3542821446020602e-04 5.9286405279590781e-01 0.0000000000000000e+00  2.4646645611169374e-02 2.2466413999416079e-01 0.0000000000000000e+00  1.0869929481026939e-02 2.9064545957149546e-01 0.0000000000000000e+00  -4.5692549421271551e-02 -4.2012720345968912e-01 0.0000000000000000e+00  2.0256455651176605e-01 -3.4917022977278955e-01 0.0000000000000000e+00  -1.7267001776732493e-01 2.0645336061715935e-01 0.0000000000000000e+00  1.1573214316660828e-02 -4.4458577331686433e-01 0.000