<?xml version="1.0"?>
<VTKFile type="UnstructuredGrid"  version="0.1"  >
<UnstructuredGrid>
<Piece  NumberOfPoints="1419" NumberOfCells="2698">
<Points>
<DataArray  type="Float64"  NumberOfComponents="3"  format="ascii">1.017369148980657e-07 -2.418446129285051e-06 0  1.294833405654298e-07 0.4099975711067961 0  2.500000268469925 -3.658294373694815e-06 0  2.50000026846996 0.4099963417056585 0  0.6000002999359979 0.1899962255727647 0  0.6000003334705802 0.209996223108013 0  0.25 0.2 0  0.1500001139622018 0.1999975998373991 0  0.2489897948556636 0.21 0  0.2489897948556636 0.19 0  0.6000003250775959 0.1999962113759668 0  1.291426265776858e-07 0.3807118575713368 0  1.281762625898322e-07 0.3514261453252098 0  1.265694625888478e-07 0.3221404340609188 0  1.243505913665695e-07 0.292854723117153 0  1.216458724588889e-07 0.2635690119884034 0  1.185680395859208e-07 0.2342833003371236 0  1.152572491960303e-07 0.2049975876561655 0  1.119734567258449e-07 0.1757118740391544 0  1.089547470413504e-07 0.1464261593964236 0  1.063429348004695e-07 0.1171404439241226 0  1.043323338700471e-07 0.0878547279385716 0  1.028677452116839e-07 0.05856901189418365 0  1.020088788677666e-07 0.02928329629615601 0  0.03015453905330026 -2.41895979786305e-06 0  0.06140012038845496 -2.420818120184439e-06 0  0.09377633971043761 -2.425020700163211e-06 0  0.127324092540171 -2.433312303905457e-06 0  0.162085780365438 -2.448831525925364e-06 0  0.198105335532018 -2.479312738347011e-06 0  0.2354282757164248 -2.536442292172334e-06 0  0.2741017515232338 -2.628115996424011e-06 0  0.3141746521037073 -2.755972743036299e-06 0  0.3556976041276458 -2.916100626344629e-06 0  0.3987230824516301 -3.089553650305989e-06 0  0.4433054555067708 -3.255581872645074e-06 0  0.4895010512131792 -3.399660354812651e-06 0  0.5373682619118143 -3.509222866038442e-06 0  0.586967557779594 -3.58120286045664e-06 0  0.6383616084763366 -3.624284354498335e-06 0  0.6916153659801493 -3.645170147350829e-06 0  0.7467961184778197 -3.654212555312363e-06 0  0.8039736093381902 -3.657815410503347e-06 0  0.8632200792156508 -3.658955319302239e-06 0  0.9246103992986772 -3.659101747099701e-06 0  0.9882221484550257 -3.658932433956412e-06 0  1.054135713387844 -3.658738630985911e-06 0  1.12243436863282 -3.658580457313326e-06 0  1.193204445395412 -3.658466370194677e-06 0  1.266535358229142 -3.65839376432109e-06 0  1.342519784448796 -3.658351092726447e-06 0  1.421253716936792 -3.658325828042636e-06 0  1.502836657556715 -3.658311005293476e-06 0  1.587371708218668 -3.658303021914432e-06 0  1.674965687242144 -3.658298796120612e-06 0  1.765729270292937 -3.658296546850941e-06 0  1.859777177348763 -3.658295441024597e-06 0  1.957228245956418 -3.658294861155171e-06 0  2.058205598339608 -3.658294597164922e-06 0  2.162836859659773 -3.658294462436069e-06 0  2.27125422576075 -3.65829440534516e-06 0  2.38359471527334 -3.658294380912147e-06 0  2.500000268469928 0.1024963417053921 0  2.500000268469943 0.2049963417051164 0  2.500000268469956 0.3074963417053722 0  2.383594715273626 0.4099963417056655 0  2.271254225761312 0.4099963417056908 0  2.162836859660667 0.4099963417057504 0  2.058205598340992 0.4099963417058789 0  1.957228245958588 0.4099963417061401 0  1.859777177352474 0.4099963417067484 0  1.765729270299363 0.4099963417078508 0  1.674965687254043 0.4099963417101931 0  1.587371708240542 0.4099963417144305 0  1.502836657597381 0.409996341722502 0  1.421253717012953 0.4099963417381026 0  1.342519784585269 0.4099963417646011 0  1.266535358469241 0.4099963418109236 0  1.193204445821205 0.4099963418980743 0  1.12243436937203 0.4099963420541894 0  1.054135714612574 0.4099963423148611 0  0.9882221505024398 0.4099963428297179 0  0.9246104026005383 0.4099963437730537 0  0.8632200845102135 0.4099963455752 0  0.8039736176247969 0.409996349174295 0  0.74679613114253 0.4099963563937853 0  0.6916153845708144 0.4099963704935066 0  0.6383616345765533 0.4099963981213639 0  0.586967592932189 0.4099964461376247 0  0.5373683061936891 0.4099965214400321 0  0.4895011040256615 0.4099966305061666 0  0.4433055160463031 0.409996768152832 0  0.3987231489137686 0.4099969243147827 0  0.3556976737460589 0.4099970852071667 0  0.3141747218037581 0.4099972339674351 0  0.2741018175270588 0.409997356141472 0  0.2354283358671497 0.4099974431227861 0  0.1981053884369533 0.4099974999135015 0  0.1620858258851239 0.4099975330646655 0  0.1273241315734813 0.4099975514782064 0  0.09377637363719521 0.4099975620598581 0  0.06140015079123121 0.4099975675478074 0  0.03015456739725435 0.4099975703960157 0  0.2497468076502589 0.2050254481002335 0  0.2497468076502614 0.1949745518997913 0  0.2469965433401319 0.182930551154712 0  0.2439894064335764 0.1762300646974599 0  0.240033259210932 0.1700425157955625 0  0.2352134507751404 0.1645013065992323 0  0.2296339627100627 0.1597259324991819 0  0.2234151648687692 0.155819399725027 0  0.2166912192314448 0.1528659747724739 0  0.2096071854611702 0.150929366565865 0  0.2023158918433043 0.1500513469853362 0  0.1949746374494562 0.1502508569457213 0  0.1877417995764409 0.1515235881146225 0  0.1807734162621634 0.1538420820217037 0  0.1742198205514157 0.1571563183678941 0  0.1682223967867637 0.1613947966683614 0  0.1629105309310193 0.1664660766732347 0  0.1583988187837439 0.172260752539806 0  0.1547845941843911 0.1786538119184792 0  0.1521458287811211 0.1855073336293625 0  0.1505394502932951 0.1926734625637792 0  0.1505394553150508 0.2073217377045418 0  0.15214583887395 0.2144878684963688 0  0.1547846092391575 0.2213413934268612 0  0.158398838879184 0.2277344577892276 0  0.1629105559855025 0.2335291407258022 0  0.1682224268929452 0.2386004309264109 0  0.1742198556007535 0.2428389229336907 0  0.1807734563460296 0.2461531782820023 0  0.1877418446538176 0.2484716982830745 0  0.194974687554439 0.2497444653602274 0  0.2023159469140686 0.2499440227093242 0  0.209607245608946 0.2490660691152595 0  0.2166912842531155 0.2471295475195515 0  0.2234152347055927 0.2441762430759185 0  0.2296340371844297 0.2402698729648979 0  0.2352135292120756 0.2354947273314088 0  0.2400333403950743 0.2299538352642514 0  0.2439894868963717 0.223766781077953 0  0.2469966130738464 0.2170671310394902 0  0.2564581958441571 0.209998881395419 0  0.2639265269034449 0.2099985074518306 0  0.2713948593332315 0.2099982657026385 0  0.2788631661443824 0.2099980755912759 0  0.2863314760668378 0.2099979145976669 0  0.2937997769266391 0.2099977747161599 0  0.3012680807749241 0.2099976502775973 0  0.3087363817672591 0.2099975409726529 0  0.3162046874758995 0.2099974394191025 0  0.3236729876945762 0.2099973458835048 0  0.3311412956912566 0.2099972593824827 0  0.3386095954596895 0.2099971794261521 0  0.3460779035449417 0.2099971014520509 0  0.3535462043682768 0.209997018554123 0  0.3610145043880783 0.2099969702990134 0  0.3684828097174913 0.2099969163789308 0  0.3759511049543958 0.209996860015642 0  0.3834194082479266 0.2099968065046371 0  0.3908877015240765 0.209996753944347 0  0.39835600396215 0.2099967027762063 0  0.4058242951773382 0.2099966526092085 0  0.4132925965638384 0.2099965971006498 0  0.4207608857884185 0.2099965302845403 0  0.4282291842778443 0.2099965012240834 0  0.4356974908107114 0.2099964581452383 0  0.4431657903289586 0.2099964196221732 0  0.4506341029161171 0.2099963740388682 0  0.4581024067286814 0.2099963384733784 0  0.4655707273769918 0.2099962985750567 0  0.4730390350227131 0.2099962637281484 0  0.4805073584594364 0.2099962421036589 0  0.4879756695914069 0.2099962264026063 0  0.4954440061249992 0.209996164730187 0  0.5029123207169798 0.2099961443467497 0  0.5103806561616818 0.2099961719651639 0  0.5178489658888351 0.2099961584968136 0  0.5253172879381208 0.2099961444400902 0  0.532785596249759 0.2099961324513115 0  0.5402539214399895 0.2099961282726004 0  0.547722231170289 0.2099961272375818 0  0.5551905528995815 0.2099961312501434 0  0.5626588617252397 0.2099961185234481 0  0.5701271555584881 0.209996151685397 0  0.5775954613160482 0.2099961749649562 0  0.5850637557810736 0.2099961801041018 0  0.5925320528404537 0.2099961961997959 0  0.6000003353503418 0.2049962127710491 0  0.6000003089813492 0.1949962189725743 0  0.5925319990113216 0.1899962052247429 0  0.5850637025148756 0.1899961793532052 0  0.5775953915816228 0.1899961556946405 0  0.5701270899038299 0.1899961328752662 0  0.5626587804934069 0.1899961017195193 0  0.5551904665530399 0.1899961072701193 0  0.5477221638360897 0.1899961011083514 0  0.5402538429394667 0.1899960966977707 0  0.532785539010452 0.189996098351591 0  0.5253172160039263 0.1899961034049192 0  0.5178489110922452 0.1899961085352573 0  0.5103805910919682 0.1899961111584263 0  0.5029122817854631 0.1899961163774908 0  0.4954439434227093 0.1899961333028508 0  0.4879756338904397 0.1899961619729839 0  0.4805073121452163 0.1899961941864611 0  0.4730390063251197 0.1899962256075997 0  0.4655706813483571 0.1899962592516651 0  0.4581023777666219 0.1899962972339594 0  0.4506340594158563 0.1899963398342055 0  0.4431657576893062 0.1899963850415322 0  0.4356974413012119 0.1899964320470679 0  0.4282291389774489 0.1899964775461764 0  0.4207608275052272 0.1899965131561823 0  0.413292519795443 0.189996579654345 0  0.4058242202102941 0.1899966393864886 0  0.3983559118674204 0.1899966943281725 0  0.3908876110537207 0.1899967493511487 0  0.383419302338696 0.1899968043039773 0  0.3759510006024947 0.1899968599572481 0  0.3684826923919898 0.1899969168525361 0  0.361014391671134 0.1899969718389962 0  0.3535460831729725 0.1899970232883374 0  0.3460777737020052 0.1899971050173767 0  0.3386094712003418 0.1899971844445281 0  0.3311411622461967 0.1899972655567834 0  0.3236728616090673 0.1899973516859918 0  0.3162045561265081 0.1899974449271163 0  0.3087362565132377 0.1899975448107431 0  0.3012679532687009 0.1899976533233936 0  0.2937996516543815 0.1899977781358463 0  0.2863313450844238 0.1899979171493073 0  0.2788630414669582 0.1899980743179807 0  0.2713947178027865 0.1899982718232374 0  0.2639264057239059 0.1899985294888591 0  0.25645809129719 0.1899988885244037 0
[...]
<PointData  Vectors="f_30-0"> 
<DataArray  type="Float64"  Name="f_30-0"  NumberOfComponents="3" format="ascii">0.0000000000000000e+00 0.0000000000000000e+00 0.0000000000000000e+00  0.0000000000000000e+00 0.0000000000000000e+00 0.0000000000000000e+00  0.0000000000000000e+00 0.0000000000000000e+00 0.0000000000000000e+00  0.0000000000000000e+00 0.0000000000000000e+00 0.0000000000000000e+00  5.4963669465994028e-02 -1.2041046557981987e-01 0.0000000000000000e+00  1.2481006349708187e-01 -1.1109586534293024e-01 0.0000000000000000e+00  0.0000000000000000e+00 0.0000000000000000e+00 0.0000000000000000e+00  0.0000000000000000e+00 0.0000000000000000e+00 0.0000000000000000e+00  0.0000000000000000e+00 0.0000000000000000e+00 0.0000000000000000e+00  0.0000000000000000e+00 0.0000000000000000e+00 0.0000000000000000e+00  2.0208380574140680e-01 -2.5088395124387686e-01 0.0000000000000000e+00  0.0000000000000000e+00 0.0000000000000000e+00 0.0000000000000000e+00  0.0000000000000000e+00 0.0000000000000000e+00 0.0000000000000000e+00  0.0000000000000000e+00 0.0000000000000000e+00 0.0000000000000000e+00  0.0000000000000000e+00 0.0000000000000000e+00 0.0000000000000000e+00  0.0000000000000000e+00 0.0000000000000000e+00 0.0000000000000000e+00  0.0000000000000000e+00 0.0000000000000000e+00 0.0000000000000000e+00  0.0000000000000000e+00 0.0000000000000000e+00 0.0000000000000000e+00  0.0000000000000000e+00 0.0000000000000000e+00 0.0000000000000000e+00  0.0000000000000000e+00 0.0000000000000000e+00 0.0000000000000000e+00  0.0000000000000000e+00 0.0000000000000000e+00 0.0000000000000000e+00  0.0000000000000000e+00 0.0000000000000000e+00 0.0000000000000000e+00  0.0000000000000000e+00 0.0000000000000000e+00 0.0000000000000000e+00  0.0000000000000000e+00 0.0000000000000000e+00 0.0000000000000000e+00  0.0000000000000000e+00 0.0000000000000000e+00 0.0000000000000000e+00  0.0000000000000000e+00 0.0000000000000000e+00 0.0000000000000000e+00  0.0000000000000000e+00 0.0000000000000000e+00 0.0000000000000000e+00  0.0000000000000000e+00 0.0000000000000000e+00 0.0000000000000000e+00  0.0000000000000000e+00 0.0000000000000000e+00 0.0000000000000000e+00  0.0000000000000000e+00 0.0000000000000000e+00 0.0000000000000000e+00  0.0000000000000000e+00 0.0000000000000000e+00 0.0000000000000000e+00  0.0000000000000000e+00 0.0000000000000000e+00 0.0000000000000000e+00  0.0000000000000000e+00 0.0000000000000000e+00 0.0000000000000000e+00  0.0000000000000000e+00 0.0000000000000000e+00 0.0000000000000000e+00  0.0000000000000000e+00 0.0000000000000000e+00 0.0000000000000000e+00  0.0000000000000000e+00 0.0000000000000000e+00 0.0000000000000000e+00  0.0000000000000000e+00 0.0000000000000000e+00 0.0000000000000000e+00  0.0000000000000000e+00 0.0000000000000000e+00 0.0000000000000000e+00  0.0000000000000000e+00 0.0000000000000000e+00 0.0000000000000000e+00  0.0000000000000000e+00 0.0000000000000000e+00 0.0000000000000000e+00  0.0000000000000000e+00 0.0000000000000000e+00 0.0000000000000000e+00  0.0000000000000000e+00 0.0000000000000000e+00 0.0000000000000000e+00  0.0000000000000000e+00 0.0000000000000000e+00 0.0000000000000000e+00  0.0000000000000000e+00 0.0000000000000000e+00 0.0000000000000000e+00  0.0000000000000000e+00 0.0000000000000000e+00 0.0000000000000000e+00  0.0000000000000000e+00 0.0000000000000000e+00 0.0000000000000000e+00  0.0000000000000000e+00 0.0000000000000000e+00 0.0000000000000000e+00  0.0000000000000000e+00 0.0000000000000000e+00 0.0000000000000000e+00  0.0000000000000000e+00 0.0000000000000000e+00 0.0000000000000000e+00  0.0000000000000000e+00 0.0000000000000000e+00 0.0000000000000000e+00  0.0000000000000000e+00 0.0000000000000000e+00 0.0000000000000000e+00  0.0000000000000000e+00 0.0000000000000000e+00 0.0000000000000000e+00  0.0000000000000000e+00 0.0000000000000000e+00 0.0000000000000000e+00  0.0000000000000000e+00 0.0000000000000000e+00 0.0000000000000000e+00  0.0000000000000000e+00 0.0000000000000000e+00 0.0000000000000000e+00  0.0000000000000000e+00 0.0000000000000000e+00 0.0000000000000000e+00  0.0000000000000000e+00 0.0000000000000000e+00 0.0000000000000000e+00  0.0000000000000000e+00 0.0000000000000000e+00 0.0000000000000000e+00  0.0000000000000000e+00 0.0000000000000000e+00 0.0000000000000000e+00  0.0000000000000000e+00 0.0000000000000000e+00 0.0000000000000000e+00  0.0000000000000000e+00 0.0000000000000000e+00 0.0000000000000000e+00  0.0000000000000000e+00 0.0000000000000000e+00 0.0000000000000000e+00  1.0033196677635906e-08 3.5061187916915265e-09 0.0000000000000000e+00  -2.1412146702502300e-10 5.0716355631998615e-09 0.0000000000000000e+00  -1.0321437856861688e-08 3.9861837445523687e-09 0.0000000000000000e+00  0.0000000000000000e+00 0.0000000000000000e+00 0.0000000000000000e+00  0.0000000000000000e+00 0.0000000000000000e+00 0.0000000000000000e+00  0.0000000000000000e+00 0.0000000000000000e+00 0.0000000000000000e+00  0.0000000000000000e+00 0.0000000000000000e+00 0.0000000000000000e+00  0.0000000000000000e+00 0.0000000000000000e+00 0.0000000000000000e+00  0.0000000000000000e+00 0.0000000000000000e+00 0.0000000000000000e+00  0.0000000000000000e+00 0.0000000000000000e+00 0.0000000000000000e+00  0.0000000000000000e+00 0.0000000000000000e+00 0.0000000000000000e+00  0.0000000000000000e+00 0.0000000000000000e+00 0.0000000000000000e+00  0.0000000000000000e+00 0.0000000000000000e+00 0.0000000000000000e+00  0.0000000000000000e+00 0.0000000000000000e+00 0.0000000000000000e+00  0.0000000000000000e+00 0.0000000000000000e+00 0.0000000000000000e+00  0.0000000000000000e+00 0.0000000000000000e+00 0.0000000000000000e+00  0.0000000000000000e+00 0.0000000000000000e+00 0.0000000000000000e+00  0.0000000000000000e+00 0.0000000000000000e+00 0.0000000000000000e+00  0.0000000000000000e+00 0.0000000000000000e+00 0.0000000000000000e+00  0.0000000000000000e+00 0.0000000000000000e+00 0.0000000000000000e+00  0.0000000000000000e+00 0.0000000000000000e+00 0.0000000000000000e+00  0.0000000000000000e+00 0.0000000000000000e+00 0.0000000000000000e+00  0.0000000000000000e+00 0.0000000000000000e+00 0.0000000000000000e+00  0.0000000000000000e+00 0.0000000000000000e+00 0.0000000000000000e+00  0.0000000000000000e+00 0.0000000000000000e+00 0.0000000000000000e+00  0.0000000000000000e+00 0.0000000000000000e+00 0.0000000000000000e+00  0.0000000000000000e+00 0.0000000000000000e+00 0.0000000000000000e+00  0.0000000000000000e+00 0.0000000000000000e+00 0.0000000000000000e+00  0.0000000000000000e+00 0.0000000000000000e+00 0.0000000000000000e+00  0.0000000000000000e+00 0.0000000000000000e+00 0.0000000000000000e+00  0.0000000000000000e+00 0.0000000000000000e+00 0.0000000000000000e+00  0.0000000000000000e+00 0.0000000000000000e+00 0.0000000000000000e+00  0.0000000000000000e+00 0.0000000000000000e+00 0.0000000000000000e+00  0.0000000000000000e+00 0.0000000000000000e+00 0.0000000000000000e+00  0.0000000000000000e+00 0.0000000000000000e+00 0.0000000000000000e+00  0.0000000000000000e+00 0.0000000000000000e+00 0.0000000000000000e+00  0.0000000000000000e+00 0.0000000000000000e+00 0.0000000000000000e+00  0.0000000000000000e+00 0.0000000000000000e+00 0.0000000000000000e+00  0.0000000000000000e+00 0.0000000000000000e+00 0.0000000000000000e+00  0.0000000000000000e+00 0.0000000000000000e+00 0.0000000000000000e+00  0.0000000000000000e+00 0.0000000000000000e+00 0.0000000000000000e+00  0.0000000000000000e+00 0.0000000000000000e+00 0.0000000000000000e+00  0.0000000000000000e+00 0.0000000000000000e+00 0.0000000000000000e+00  0.0000000000000000e+00 0.0000000000000000e+00 0.0000000000000000e+00  0.0000000000000000e+00 0.0000000000000000e+00 0.0000000000000000e+00  0.0000000000000000e+00 0.0000000000000000e+00 0.0000000000000000e+00  0.0000000000000000e+00 0.0000000000000000e+00 0.0000000000000000e+00  0.0000000000000000e+00 0.0000000000000000e+00 0.0000000000000000e+00  0.0000000000000000e+00 0.0000000000000000e+00 0.0000000000000000e+00  0.0000000000000000e+00 0.0000000000000000e+00 0.0000000000000000e+00  0.0000000000000000e+00 0.0000000000000000e+00 0.0000000000000000e+00  0.0000000000000000e+00 0.0000000000000000e+00 0.0000000000000000e+00  0.0000000000000000e+00 0.0000000000000000e+00 0.0000000000000000e+00  0.0000000000000000e+00 0.0000000000000000e+00 0.0000000000000000e+00  0.0000000000000000e+00 0.0000000000000000e+00 0.0000000000000000e+00  0.0000000000000000e+00 0.0000000000000000e+00 0.0000000000000000e+00  0.0000000000000000e+00 0.0000000000000000e+00 0.0000000000000000e+00  0.0000000000000000e+00 0.0000000000000000e+00 0.0000000000000000e+00  0.0000000000000000e+00 0.0000000000000000e+00 0.0000000000000000e+00  0.0000000000000000e+00 0.0000000000000000e+00 0.0000000000000000e+00  0.0000000000000000e+00 0.0000000000000000e+00 0.0000000000000000e+00  0.0000000000000000e+00 0.0000000000000000e+00 0.0000000000000000e+00  0.0000000000000000e+00 0.0000000000000000e+00 0.0000000000000000e+00  0.0000000000000000e+00 0.0000000000000000e+00 0.0000000000000000e+00  0.0000000000000000e+00 0.0000000000000000e+00 0.0000000000000000e+00  0.0000000000000000e+00 0.0000000000000000e+00 0.0000000000000000e+00  0.0000000000000000e+00 0.0000000000000000e+00 0.0000000000000000e+00  0.0000000000000000e+00 0.0000000000000000e+00 0.0000000000000000e+00  0.0000000000000000e+00 0.0000000000000000e+00 0.0000000000000000e+00  0.0000000000000000e+00 0.0000000000000000e+00 0.0000000000000000e+00  0.0000000000000000e+00 0.0000000000000000e+00 0.0000000000000000e+00  0.0000000000000000e+00 0.0000000000000000e+00 0.0000000000000000e+00  0.0000000000000000e+00 0.0000000000000000e+00 0.0000000000000000e+00  0.0000000000000000e+00 0.0000000000000000e+00 0.0000000000000000e+00  0.0000000000000000e+00 0.0000000000000000e+00 0.0000000000000000e+00  0.0000000000000000e+00 0.0000000000000000e+00 0.0000000000000000e+00  0.0000000000000000e+00 0.0000000000000000e+00 0.0000000000000000e+00  0.0000000000000000e+00 0.0000000000000000e+00 0.0000000000000000e+00  0.0000000000000000e+00 0.0000000000000000e+00 0.0000000000000000e+00  0.0000000000000000e+00 0.0000000000000000e+00 0.0000000000000000e+00  0.0000000000000000e+00 0.0000000000000000e+00 0.0000000000000000e+00  1.1087500017932264e-01 6.8791128650768074e-01 0.0000000000000000e+00  8.0623981409941467e-02 6.3179187160095018e-01 0.0000000000000000e+00  2.2543640858531577e-01 4.9957929564372255e-01 0.0000000000000000e+00  1.0179142224123751e-01 3.0243524101630032e-01 0.0000000000000000e+00  1.3036740509746622e-01 1.7948294462755454e-01 0.0000000000000000e+00  5.4978622230051434e-02 5.4272129744108832e-02 0.0000000000000000e+00  7.1741290150342737e-02 -2.8900614609260168e-02 0.0000000000000000e+00  7.5133204321056069e-03 -1.1632326382393074e-01 0.0000000000000000e+00  4.4602086115979642e-02 -1.7995540226499968e-01 0.0000000000000000e+00  -1.2158374192867170e-02 -2.1223038582580284e-01 0.0000000000000000e+00  4.3209272753156613e-02 -2.7308718530837106e-01 0.0000000000000000e+00  -1.6522382502525683e-02 -2.7627942854341742e-01 0.0000000000000000e+00  6.3807871276266873e-02 -3.3348046956841720e-01 0.0000000000000000e+00  1.6702422343364148e-02 -3.6091117867025119e-01 0.0000000000000000e+00  7.0587328751449867e-03 -3.3109396175805583e-01 0.0000000000000000e+00  3.9381788441645617e-02 -2.9178845193090908e-01 0.0000000000000000e+00  -5.8114031828817095e-03 -3.2312561929519540e-01 0.0000000000000000e+00  2.8356617142510660e-02 -3.0948195509404902e-01 0.0000000000000000e+00  -2.9748718174776694e-02 -3.1712860943187371e-01 0.0000000000000000e+00  1.8318710324711780e-02 -3.4743895243883072e-01 0.0000000000000000e+00  -7.5399498791730177e-02 -3.2695252944869341e-01 0.0000000000000000e+00  1.5979032085451397e-02 -3.8564713769680203e-01 0.0000000000000000e+00  -8.9712993262254140e-02 -4.2426265249150197e-01 0.0000000000000000e+00  -1.2616170315555914e-01 -4.0760603444385962e-01 0.0000000000000000e+00  -1.0155267567802134e-01 -5.7600917215538439e-01 0.0000000000000000e+00  -1.4096145759746256e-01 -4.9193632122890696e-01 0.0000000000000000e+00  -1.0613478422063664e-01 -6.7217124191928801e-01 0.0000000000000000e+00  -1.8478976903570746e-01 -6.0724389872365936e-01 0.0000000000000000e+00  -1.9142022788679370e-02 -7.2707234751909311e-01 0.0000000000000000e+00  -1.5889605282428673e-01 -8.0985396708147028e-01 0.0000000000000000e+00  -5.3981922915953530e-02 -7.0392429854623839e-01 0.0000000000000000e+00  -1.8058540072547963e-01 -3.6734135671352436e-01 0.0000000000000000e+00  2.0250636717185547e-01 -1.1322812860969655e+00 0.0000000000000000e+00  -1.7120124095656061e-01 -1.2083072999143969e+00 0.0000000000000000e+00  1.8880546062987874e-01 -3.7698248220096692e-01 0.0000000000000000e+00  5.8592654412610773e-02 -5.5599426702304655e-01 0.0000000000000000e+00  1.2629383661507745e-01 -6.0808014554695078e-01 0.0000000000000000e+00  -7.0070259403738500e-03 -7.2037507678414159e-01 0.0000000000000000e+00  1.8469223268512228e-01 -6.8913920192246025e-01 0.0000000000000000e+00  8.1202206847590330e-02 -6.6601246266141778e-01 0.0000000000000000e+00  2.1750312477449216e-01 -4.6466210662028090e-01 0.0000000000000000e+00  1.5508016915117945e-01 -4.8152108200198496e-01 0.0000000000000000e+00  9.3057906105159099e-02 -4.1583918230673111e-01 0.0000000000000000e+00  1.9034050768572733e-01 -2.5940313014529082e-01 0.0000000000000000e+00  1.5649149299294582e-01 -4.6720471949952430e-01 0.0000000000000000e+00  3.1603798879606038e-01 -5.0462952437326225e-01 0.0000000000000000e+00  3.0283848088932663e-01 -3.2799660027682964e-01 0.0000000000000000e+00  5.5715494543535221e-02 -1.9569117940369932e-01 0.0000000000000000e+00  8.1692327511181217e-02 -2.2202050540558829e-01 0.0000000000000000e+00  1.7254713067516150e-01 -3.0477404433113592e-01 0.0000000000000000e+00  6.3437775701219973e-02 -3.4806947346847483e-01 0.0000000000000000e+00  1.4886341777627490e-01 -4.2757530905256624e-01 0.0000000000000000e+00  8.3006435273659793e-02 -4.2433164521316996e-01 0.0000000000000000e+00  3.1384223818420293e-02 -4.8479956637181060e-01 0.0000000000000000e+00  1.7258613626558666e-01 -5.2631338570703989e-01 0.0000000000000000e+00  -7.9862606969287597e-03 -5.6533595018586191e-01 0.0000000000000000e+00  1.2510588184112387e-01 -5.7877973844245334e-01 0.0000000000000000e+00  -4.9468803745211107e-02 -5.7078046401308657e-01 0.0000000000000000e+00  1.4213156453120560e-01 -5.7407346929812353e-01 0.0000000000000000e+00  4.2196146838240328e-02 -6.2908625696288911e-01 0.0000000000000000e+00  1.8199150830342425e-01 -7.4695503348179459e-01 0.0000000000000000e+00  -1.5836958599002351e-01 -7.4864997786617127e-01 0.0000000000000000e+00  -6.4484054876917229e-03 -6.5232426590056691e-01 0.0000000000000000e+00  -1.2062030038775563e-01 -6.2038796693131737e-01 0.0000000000000000e+00  5.8480636055212878e-02 -6.2586237255795962e-01 0.0000000000000000e+00  -1.4069451616989817e-01 -6.1407228282221804e-01 0.0000000000000000e+00  3.9968164186022642e-03 -5.7285484540341802e-01 0.0000000000000000e+00  -1.4110032444661291e-01 -5.3979446910848272e-01 0.0000000000000000e+00  -2.1965413211863598e-03 -5.0195684246706795e-01 0.0000000000000000e+00  -1.3177291309695868e-01 -4.6323197288187984e-01 0.0000000000000000e+00  -9.1353873685893847e-03 -4.3439423029032304e-01 0.0000000000000000e+00  -5.9984893750538559e-02 -3.9967418882121469e-01 0.0000000000000000e+00  -9.7486126956643451e-02 -3.9547492789021016e-01 0.0000000000000000e+00  -2.4560912785648713e-02 -3.4293987935756143e-01 0.0000000000000000e+00  -7.7451729239673250e-02 -3.4243402704020359e-01 0.0000000000000000e+00  -8.5085385488972917e-03 -3.3459727199315414e-01 0.0000000000000000e+00  -6.5828851276187969e-02 -3.3120143816952868e-01 0.0000000000000000e+00  -7.4820973174244410e-03 -3.2494220444652966e-01 0.0000000000000000e+00  -5.7123626329819197e-02 -3.1477259667396201e-01 0.0000000000000000e+00  1.5457230615090573e-03 -3.2587111161075122e-01 0.0000000000000000e+00  -2.1410063575617758e-02 -3.2187242770653929e-01 0.0000000000000000e+00  -9.2816036916783806e-02 -3.2960189032632209e-01 0.0000000000000000e+00  -1.6232650651631896e-02 -2.8473308006534420e-01 0.0000000000000000e+00  -9.7654006543815938e-02 -2.6571162233470730e-01 0.0000000000000000e+00  -2.9376349541360761e-02 -2.2326714149984225e-01 0.0000000000000000e+00  -8.3568512652247726e-02 -1.8349748501442198e-01 0.0000000000000000e+00  -2.8675036487724494e-02 -1.2363598433307879e-01 0.0000000000000000e+00  -6.2140032405591482e-02 -5.2654054605466474e-02 0.0000000000000000e+00  -8.8525408999755063e-03 4.7946231662973446e-02 0.0000000000000000e+00  -2.8574960990156523e-02 1.6848294946926642e-01 0.0000000000000000e+00  5.6242679328979896e-02 2.1578170056854010e-01 0.0000000000000000e+00  -1.2438179985701073e-01 5.1148535226321701e-01 0.0000000000000000e+00  -2.3670073156350502e-01 9.3397070165505292e-01 0.0000000000000000e+00  -2.3551368408280018e-01 6.9375948131568055e-01 0.0000000000000000e+00  -7.5440228552819564e-03 -4.4211679657062208e-01 0.0000000000000000e+00  -1.2709083425457426e-02 2.3606415657340094e-01 0.0000000000000000e+00  7.7993779057685120e-03 2.8788058910292574e-01 0.0000000000000000e+00  4.6625444849872077e-03 4.3607962715984555e-01 0.0000000000000000e+00  -7.3222022209982543e-02 -3.2369030829149348e-01 0.0000000000000000e+00  2.9233241998038072e-02 4.9479543147064653e-01 0.0000000000000000e+00  1.7122099581464593e-02 -1.1688379164833884e-01 0.0000000000000000e+00  8.1506786125451841e-02 4.7595838993415718e-01 0.0000000000000000e+00  4.6082456959880679e-03 1.2058438116007211e-01 0.0000000000000000e+00  -7.2730698846771821e-04 1.9199032132444127e-01 0.0000000000000000e+00  -2.0530705277785893e-01 5.8632932799916226e-01 0.0000000000000000e+00  4.4746325142404316e-03 2.5629517055706014e-01 0.0000000000000000e+00  -9.5049124899205584e-02 5.3768043198016158e-01 0.0000000000000000e+00  -3.6909786182545892e-03 2.2566369793923111e-01 0.0000000000000000e+00  -2.0547251494975605e-03 2.5693695723920884e-01 0.0000000000000000e+00  1.2276595956613972e-03 4.9764199760824285e-01 0.0000000000000000e+00  2.0120535491783043e-01 5.7964508125676584e-01 0.0000000000000000e+00  -1.3124446303791993e-02 2.6887511119505225e-01 0.0000000000000000e+00  -1.4551237624277243e-02 4.3899553422260634e-01 0.0000000000000000e+00  -1.8467779478322155e-03 2.8444447300280518e-01 0.0000000000000000e+00  -1.7242526964864120e-02 3.7220133422908452e-01 0.0000000000000000e+00  1.0146044877533700e-02 2.6645167442197887e-01 0.0000000000000000e+00  -4.0792721750238154e-04 2.1264745191947132e-01 0.0000000000000000e+00  -9.4566617713653951e-03 3.0617137824238938e-01 0.0000000000000000e+00  4.0040041581765754e-03 3.2730478362179648e-02 0.0000000000000000e+00  -6.0901446430879106e-03 2.0837547002307577e-01 0.0000000000000000e+00  -1.0477895602427184e-01 -4.1790623392610415e-01 0.0000000000000000e+00  1.3736997621567101e-02 3.3036311319720052e-01 0.0000000000000000e+00  -2.7842565720384443e-02 3.5279053227415041e-01 0.0000000000000000e+00  2.1342121369430912e-02 -1.4292156311223791e-01 0.0000000000000000e+00  2.0343966149374882e-02 1.1808388895081101e-01 0.0000000000000000e+00  3.1616498254668418e-02 3.3755425868610439e-01 0.0000000000000000e+00  -4.1315469372793456e-02 3.0988319210359982e-01 0.0000000000000000e+00  -1.0167385935512779e-02 1.8269757276686685e-01 0.0000000000000000e+00  -6.4118641306545971e-03 3.7079933146941663e-01 0.0000000000000000e+00  1.8568910488785582e-02 1.4869089270553654e-01 0.0000000000000000e+00  2.9020452560846281e-03 1.8764399592402775e-01 0.0000000000000000e+00  1.2373046701204250e-02 3.3973125225214068e-01 0.0000000000000000e+00  -1.2307714412839220e-03 5.6437840262185712e-01 0.0000000000000000e+00  2.1270262198140450e-02 2.1736150619524872e-01 0.0000000000000000e+00  1.0410268528520223e-02 2.7001208447183395e-01 0.0000000000000000e+00  -4.7534253642939950e-02 -3.9702149338382303e-01 0.0000000000000000e+00  1.7863834863785930e-01 -3.3587466931273652e-01 0.0000000000000000e+00  -1.6071178395029748e-01 1.9271548187550219e-01 0.0000000000000000e+00  1.3799311824542106e-02 -4.1066433733610802e-01 0.0000