<?xml version="1.0"?>
<VTKFile type="UnstructuredGrid"  version="0.1"  >
<UnstructuredGrid>
<Piece  NumberOfPoints="1419" NumberOfCells="2698">
<Points>
<DataArray  type="Float64"  NumberOfComponents="3"  format="ascii">5.96515683225692e-08 -2.053703163994571e-06 0  8.36489108110596e-08 0.4099979372190092 0  2.500000166882904 -3.070385892569639e-06 0  2.500000166882931 0.4099969296141331 0  0.6000001858367796 0.1899968325985309 0  0.6000002101723911 0.2099968318696284 0  0.25 0.2 0  0.150000070500022 0.1999979613126009 0  0.2489897948556636 0.21 0  0.2489897948556636 0.19 0  0.6000002040558094 0.1999968209817186 0  8.3361907755308e-08 0.3807122235614133 0  8.254676506957077e-08 0.3514265109838463 0  8.118672347087584e-08 0.3221407992311978 0  7.929815821503632e-08 0.2928550877537431 0  7.698460769699914e-08 0.2635693761296322 0  7.434000261263901e-08 0.2342836640767392 0  7.148016074184486e-08 0.2049979511716253 0  6.863251005633817e-08 0.1757122374883662 0  6.600321138164948e-08 0.1464265229492045 0  6.371802782288733e-08 0.1171408077151775 0  6.19497154327635e-08 0.08785509204638482 0  6.06555690006997e-08 0.05856937632104409 0  5.98933912648733e-08 0.02928366095781274 0  0.03015449699951698 -2.054125587389055e-06 0  0.06140007843380609 -2.055655385720513e-06 0  0.09377629791330853 -2.059121858825332e-06 0  0.1273240509270933 -2.065973603120661e-06 0  0.1620857388913836 -2.078815866058934e-06 0  0.1981052939757703 -2.104058280287934e-06 0  0.235428233548362 -2.15135081010073e-06 0  0.2741017079023571 -2.227101239449791e-06 0  0.3141746059480325 -2.332474946700297e-06 0  0.3556975538713645 -2.463848392582895e-06 0  0.3987230265264937 -2.605562096205736e-06 0  0.4433053922431623 -2.740774848826526e-06 0  0.4895009794052645 -2.858033491085057e-06 0  0.537368181457637 -2.947447792511607e-06 0  0.5869674698801733 -3.00649652778205e-06 0  0.6383615149747015 -3.042020875229623e-06 0  0.6916152689586056 -3.059335802974342e-06 0  0.7467960194397211 -3.066871163881006e-06 0  0.8039735091561803 -3.069897324270347e-06 0  0.8632199784086322 -3.070872723790755e-06 0  0.9246102981476899 -3.071016098557604e-06 0  0.9882220471220605 -3.070890132916951e-06 0  1.054135611944722 -3.070739227018882e-06 0  1.122434267130205 -3.070613986898258e-06 0  1.193204343855998 -3.070523238167401e-06 0  1.266535256668524 -3.070465334649059e-06 0  1.342519682876558 -3.070431246858421e-06 0  1.421253615357873 -3.070411050923547e-06 0  1.502836555973947 -3.070399197203032e-06 0  1.587371606633849 -3.070392811410058e-06 0  1.674965585656248 -3.07038943077934e-06 0  1.765729168706468 -3.070387631266259e-06 0  1.859777075762013 -3.070386746526856e-06 0  1.957228144369521 -3.07038628258311e-06 0  2.058205496752643 -3.070386071366843e-06 0  2.162836758072774 -3.070385963571126e-06 0  2.271254124173738 -3.070385917892955e-06 0  2.38359461368632 -3.0703858983442e-06 0  2.500000166882905 0.1024969296138723 0  2.500000166882918 0.2049969296135944 0  2.500000166882927 0.3074969296138477 0  2.383594613686594 0.4099969296141388 0  2.271254124174275 0.409996929614159 0  2.162836758073614 0.4099969296142068 0  2.058205496753908 0.4099969296143096 0  1.957228144371436 0.4099969296145186 0  1.859777075765169 0.4099969296150052 0  1.765729168711778 0.4099969296158873 0  1.674965585665866 0.4099969296177615 0  1.587371606651295 0.4099969296211523 0  1.502836556006111 0.4099969296276119 0  1.421253615417811 0.4099969296400998 0  1.342519682983672 0.4099969296613192 0  1.26653525685668 0.4099969296984351 0  1.193204344189369 0.4099969297683554 0  1.12243426770868 0.4099969298938086 0  1.054135612902907 0.4099969301037049 0  0.9882220487236674 0.4099969305197619 0  0.92461030073184 0.4099969312844859 0  0.8632199825503899 0.4099969327505588 0  0.8039735156400616 0.4099969356878999 0  0.7467960293646048 0.409996941593769 0  0.6916152835892425 0.4099969531430018 0  0.6383615357012301 0.4099969757726676 0  0.5869674980968342 0.4099970150433181 0  0.5373682175863141 0.4099970764861608 0  0.4895010233168051 0.4099971652428756 0  0.4433054433378517 0.4099972771566334 0  0.3987230832041692 0.4099974043307558 0  0.3556976136228288 0.4099975358361054 0  0.3141746659272669 0.4099976580020362 0  0.2741017648358345 0.4099977587772393 0  0.2354282854629429 0.409997830781071 0  0.1981053396585382 0.4099978779143669 0  0.162085778220458 0.4099979054851751 0  0.1273240846674341 0.4099979208275262 0  0.09377632724915388 0.4099979296563047 0  0.0614001047245921 0.4099979342421399 0  0.03015452151365594 0.4099979366241513 0  0.2497468076502589 0.2050254481002335 0  0.2497468076502614 0.1949745518997913 0  0.2469965270891003 0.182930718542557 0  0.2439893830638593 0.1762302946482109 0  0.2400332313603653 0.1700427839928848 0  0.2352134199120997 0.1645015998098504 0  0.2296339295754619 0.1597262439122666 0  0.2234151299877902 0.155819724409731 0  0.2166911829753542 0.1528663092111412 0  0.2096071481165524 0.1509297080970244 0  0.2023158535692829 0.1500516940088325 0  0.1949745984192799 0.1502512079090456 0  0.1877417598877195 0.1515239420625899 0  0.1807733760116715 0.1538424381195005 0  0.1742197797913233 0.1571566760876256 0  0.1682223555742806 0.1613951555513951 0  0.162910489291109 0.1664664364356477 0  0.1583987767503511 0.1722611129309368 0  0.1547845517705219 0.1786541727722737 0  0.1521457860088352 0.1855076947984879 0  0.1505394071668293 0.1926738239404233 0  0.1505394115257545 0.2073220991782585 0  0.1521457947693092 0.2144882298658185 0  0.1547845648389762 0.2213417545708179 0  0.1583987941959545 0.2277348185589677 0  0.162910511045005 0.2335295009373326 0  0.1682223817199122 0.238600790306653 0  0.1742198102372269 0.2428392811793468 0  0.1807734108371602 0.2461535349679391 0  0.1877417990688048 0.2484720527559661 0  0.1949746419862288 0.2497448168288113 0  0.2023159014711453 0.2499443702350552 0  0.209607200451584 0.2490664112029577 0  0.2166912395821075 0.247129882423063 0  0.2234151908291068 0.2441765680175157 0  0.2296339944731573 0.2402701848094609 0  0.2352134883040164 0.2354950208242735 0  0.2400333021642271 0.2299541038170941 0  0.2439894532018968 0.2237670117636643 0  0.2469965877913091 0.2170672991472682 0  0.2564581703327733 0.20999903960534 0  0.2639264929705274 0.2099987172977903 0  0.2713948149228913 0.2099985085668176 0  0.2788631185320036 0.2099983456480863 0  0.2863314249700938 0.2099982084714059 0  0.2937997262385058 0.2099980885761787 0  0.301268028970114 0.2099979809099611 0  0.3087363300660874 0.2099978910288284 0  0.3162046364213065 0.2099978068506107 0  0.3236729368528795 0.2099977292855725 0  0.3311412451262349 0.2099976578333668 0  0.3386095450768927 0.2099975919701427 0  0.3460778530093698 0.209997527838777 0  0.3535461539866075 0.2099974588715386 0  0.3610144543671884 0.2099974216719128 0  0.3684827600355165 0.2099973791354718 0  0.3759510566761741 0.2099973342890652 0  0.3834193610177506 0.2099972921874962 0  0.3908876564676667 0.2099972508883236 0  0.3983559604354959 0.2099972112474464 0  0.4058242546192955 0.2099971719372208 0  0.4132925577656902 0.2099971294193795 0  0.420760851219856 0.2099970774928978 0  0.4282291497418412 0.2099970569722722 0  0.4356974549750021 0.209997026788024 0  0.4431657534804305 0.2099969966619902 0  0.4506340617094482 0.2099969639105207 0  0.4581023619873691 0.2099969352328562 0  0.4655706738085766 0.2099969073916222 0  0.4730389755256061 0.2099968817298935 0  0.4805072899968215 0.2099968580309847 0  0.4879755947170503 0.209996838000243 0  0.4954439150637898 0.209996809600303 0  0.5029122224558575 0.209996794264365 0  0.5103805425668048 0.2099967916005639 0  0.5178488478583412 0.2099967831517268 0  0.5253171655331357 0.2099967740024891 0  0.5327854705544199 0.2099967635357183 0  0.5402537890210414 0.2099967580884819 0  0.5477220951046262 0.209996756730807 0  0.5551904122097074 0.2099967552139548 0  0.5626587188792619 0.2099967425069044 0  0.5701270169225503 0.2099967703349326 0  0.5775953248417544 0.2099967890271178 0  0.5850636222736693 0.2099967954996984 0  0.5925319224964813 0.2099968106560659 0  0.6000002119120323 0.2049968230979652 0  0.6000001919419601 0.1949968271726823 0  0.5925318838441287 0.189996814689556 0  0.5850635862423331 0.1899967931030009 0  0.5775952768310409 0.189996773840919 0  0.5701269756301912 0.1899967552263866 0  0.5626586672903273 0.1899967294617137 0  0.5551903556056439 0.1899967366603408 0  0.5477220538693586 0.1899967343165243 0  0.5402537378083679 0.1899967328199994 0  0.5327854357257338 0.1899967352923456 0  0.5253171177303345 0.1899967403910203 0  0.5178488136510997 0.1899967471048369 0  0.5103804962388594 0.1899967544494527 0  0.5029121929849797 0.1899967640403558 0  0.4954438719204207 0.1899967791533166 0  0.4879755685519274 0.1899967999169941 0  0.4805072507065742 0.1899968239842598 0  0.4730389470733774 0.1899968494133485 0  0.4655706303916551 0.1899968767572613 0  0.4581023293046027 0.1899969060201509 0  0.4506340159088608 0.1899969378740188 0  0.443165715335249 0.1899969715747875 0  0.4356974027742971 0.1899970065240356 0  0.4282291009439296 0.1899970402038582 0  0.4207607912934876 0.1899970658729444 0  0.4132924841958925 0.1899971181942209 0  0.4058241842813461 0.1899971646905034 0  0.3983558765465474 0.1899972072353078 0  0.3908875754897861 0.1899972502220997 0  0.3834192673551942 0.1899972934021398 0  0.3759509655622862 0.1899973373602942 0  0.3684826578133153 0.189997382506616 0  0.3610143570158058 0.1899974257987622 0  0.3535460490850364 0.1899974657030012 0  0.3460777398917992 0.1899975338123994 0  0.3386094375078218 0.189997599404926 0  0.3311411286806767 0.1899976661249237 0  0.3236728278890307 0.189997737251256 0  0.3162045217635012 0.1899978145319431 0  0.30873622176647 0.1899978970838896 0  0.3012679172602741 0.1899979859421655 0  0.2937996149705996 0.1899980931723614 0  0.2863313101633381 0.1899982122949263 0  0.2788630073447493 0.1899983475970302 0  0.2713946919301086 0.1899985143076952 0  0.2639263866153355 0.1899987315964104 0  0.2564580800692206 0.18999904609802
[...]
<PointData  Vectors="f_30-0"> 
<DataArray  type="Float64"  Name="f_30-0"  NumberOfComponents="3" format="ascii">0.0000000000000000e+00 0.0000000000000000e+00 0.0000000000000000e+00  0.0000000000000000e+00 0.0000000000000000e+00 0.0000000000000000e+00  0.0000000000000000e+00 0.0000000000000000e+00 0.0000000000000000e+00  0.0000000000000000e+00 0.0000000000000000e+00 0.0000000000000000e+00  3.5802930528450849e-02 -1.0028209540758991e-01 0.0000000000000000e+00  8.7615946145499668e-02 -9.1846049622438530e-02 0.0000000000000000e+00  0.0000000000000000e+00 0.0000000000000000e+00 0.0000000000000000e+00  0.0000000000000000e+00 0.0000000000000000e+00 0.0000000000000000e+00  0.0000000000000000e+00 0.0000000000000000e+00 0.0000000000000000e+00  0.0000000000000000e+00 0.0000000000000000e+00 0.0000000000000000e+00  1.4521178307801788e-01 -2.1417921440476506e-01 0.0000000000000000e+00  0.0000000000000000e+00 0.0000000000000000e+00 0.0000000000000000e+00  0.0000000000000000e+00 0.0000000000000000e+00 0.0000000000000000e+00  0.0000000000000000e+00 0.0000000000000000e+00 0.0000000000000000e+00  0.0000000000000000e+00 0.0000000000000000e+00 0.0000000000000000e+00  0.0000000000000000e+00 0.0000000000000000e+00 0.0000000000000000e+00  0.0000000000000000e+00 0.0000000000000000e+00 0.0000000000000000e+00  0.0000000000000000e+00 0.0000000000000000e+00 0.0000000000000000e+00  0.0000000000000000e+00 0.0000000000000000e+00 0.0000000000000000e+00  0.0000000000000000e+00 0.0000000000000000e+00 0.0000000000000000e+00  0.0000000000000000e+00 0.0000000000000000e+00 0.0000000000000000e+00  0.0000000000000000e+00 0.0000000000000000e+00 0.0000000000000000e+00  0.0000000000000000e+00 0.0000000000000000e+00 0.0000000000000000e+00  0.0000000000000000e+00 0.0000000000000000e+00 0.0000000000000000e+00  0.0000000000000000e+00 0.0000000000000000e+00 0.0000000000000000e+00  0.0000000000000000e+00 0.0000000000000000e+00 0.0000000000000000e+00  0.0000000000000000e+00 0.0000000000000000e+00 0.0000000000000000e+00  0.0000000000000000e+00 0.0000000000000000e+00 0.0000000000000000e+00  0.0000000000000000e+00 0.0000000000000000e+00 0.0000000000000000e+00  0.0000000000000000e+00 0.0000000000000000e+00 0.0000000000000000e+00  0.0000000000000000e+00 0.0000000000000000e+00 0.0000000000000000e+00  0.0000000000000000e+00 0.0000000000000000e+00 0.0000000000000000e+00  0.0000000000000000e+00 0.0000000000000000e+00 0.0000000000000000e+00  0.0000000000000000e+00 0.0000000000000000e+00 0.0000000000000000e+00  0.0000000000000000e+00 0.0000000000000000e+00 0.0000000000000000e+00  0.0000000000000000e+00 0.0000000000000000e+00 0.0000000000000000e+00  0.0000000000000000e+00 0.0000000000000000e+00 0.0000000000000000e+00  0.0000000000000000e+00 0.0000000000000000e+00 0.0000000000000000e+00  0.0000000000000000e+00 0.0000000000000000e+00 0.0000000000000000e+00  0.0000000000000000e+00 0.0000000000000000e+00 0.0000000000000000e+00  0.0000000000000000e+00 0.0000000000000000e+00 0.0000000000000000e+00  0.0000000000000000e+00 0.0000000000000000e+00 0.0000000000000000e+00  0.0000000000000000e+00 0.0000000000000000e+00 0.0000000000000000e+00  0.0000000000000000e+00 0.0000000000000000e+00 0.0000000000000000e+00  0.0000000000000000e+00 0.0000000000000000e+00 0.0000000000000000e+00  0.0000000000000000e+00 0.0000000000000000e+00 0.0000000000000000e+00  0.0000000000000000e+00 0.0000000000000000e+00 0.0000000000000000e+00  0.0000000000000000e+00 0.0000000000000000e+00 0.0000000000000000e+00  0.0000000000000000e+00 0.0000000000000000e+00 0.0000000000000000e+00  0.0000000000000000e+00 0.0000000000000000e+00 0.0000000000000000e+00  0.0000000000000000e+00 0.0000000000000000e+00 0.0000000000000000e+00  0.0000000000000000e+00 0.0000000000000000e+00 0.0000000000000000e+00  0.0000000000000000e+00 0.0000000000000000e+00 0.0000000000000000e+00  0.0000000000000000e+00 0.0000000000000000e+00 0.0000000000000000e+00  0.0000000000000000e+00 0.0000000000000000e+00 0.0000000000000000e+00  0.0000000000000000e+00 0.0000000000000000e+00 0.0000000000000000e+00  0.0000000000000000e+00 0.0000000000000000e+00 0.0000000000000000e+00  0.0000000000000000e+00 0.0000000000000000e+00 0.0000000000000000e+00  0.0000000000000000e+00 0.0000000000000000e+00 0.0000000000000000e+00  0.0000000000000000e+00 0.0000000000000000e+00 0.0000000000000000e+00  0.0000000000000000e+00 0.0000000000000000e+00 0.0000000000000000e+00  0.0000000000000000e+00 0.0000000000000000e+00 0.0000000000000000e+00  8.8045613727709770e-09 2.9897530824671989e-09 0.0000000000000000e+00  -2.0471425252108337e-10 4.2302909611737160e-09 0.0000000000000000e+00  -9.0411007259640864e-09 3.4514899188047237e-09 0.0000000000000000e+00  0.0000000000000000e+00 0.0000000000000000e+00 0.0000000000000000e+00  0.0000000000000000e+00 0.0000000000000000e+00 0.0000000000000000e+00  0.0000000000000000e+00 0.0000000000000000e+00 0.0000000000000000e+00  0.0000000000000000e+00 0.0000000000000000e+00 0.0000000000000000e+00  0.0000000000000000e+00 0.0000000000000000e+00 0.0000000000000000e+00  0.0000000000000000e+00 0.0000000000000000e+00 0.0000000000000000e+00  0.0000000000000000e+00 0.0000000000000000e+00 0.0000000000000000e+00  0.0000000000000000e+00 0.0000000000000000e+00 0.0000000000000000e+00  0.0000000000000000e+00 0.0000000000000000e+00 0.0000000000000000e+00  0.0000000000000000e+00 0.0000000000000000e+00 0.0000000000000000e+00  0.0000000000000000e+00 0.0000000000000000e+00 0.0000000000000000e+00  0.0000000000000000e+00 0.0000000000000000e+00 0.0000000000000000e+00  0.0000000000000000e+00 0.0000000000000000e+00 0.0000000000000000e+00  0.0000000000000000e+00 0.0000000000000000e+00 0.0000000000000000e+00  0.0000000000000000e+00 0.0000000000000000e+00 0.0000000000000000e+00  0.0000000000000000e+00 0.0000000000000000e+00 0.0000000000000000e+00  0.0000000000000000e+00 0.0000000000000000e+00 0.0000000000000000e+00  0.0000000000000000e+00 0.0000000000000000e+00 0.0000000000000000e+00  0.0000000000000000e+00 0.0000000000000000e+00 0.0000000000000000e+00  0.0000000000000000e+00 0.0000000000000000e+00 0.0000000000000000e+00  0.0000000000000000e+00 0.0000000000000000e+00 0.0000000000000000e+00  0.0000000000000000e+00 0.0000000000000000e+00 0.0000000000000000e+00  0.0000000000000000e+00 0.0000000000000000e+00 0.0000000000000000e+00  0.0000000000000000e+00 0.0000000000000000e+00 0.0000000000000000e+00  0.0000000000000000e+00 0.0000000000000000e+00 0.0000000000000000e+00  0.0000000000000000e+00 0.0000000000000000e+00 0.0000000000000000e+00  0.0000000000000000e+00 0.0000000000000000e+00 0.0000000000000000e+00  0.0000000000000000e+00 0.0000000000000000e+00 0.0000000000000000e+00  0.0000000000000000e+00 0.0000000000000000e+00 0.0000000000000000e+00  0.0000000000000000e+00 0.0000000000000000e+00 0.0000000000000000e+00  0.0000000000000000e+00 0.0000000000000000e+00 0.0000000000000000e+00  0.0000000000000000e+00 0.0000000000000000e+00 0.0000000000000000e+00  0.0000000000000000e+00 0.0000000000000000e+00 0.0000000000000000e+00  0.0000000000000000e+00 0.0000000000000000e+00 0.0000000000000000e+00  0.0000000000000000e+00 0.0000000000000000e+00 0.0000000000000000e+00  0.0000000000000000e+00 0.0000000000000000e+00 0.0000000000000000e+00  0.0000000000000000e+00 0.0000000000000000e+00 0.0000000000000000e+00  0.0000000000000000e+00 0.0000000000000000e+00 0.0000000000000000e+00  0.0000000000000000e+00 0.0000000000000000e+00 0.0000000000000000e+00  0.0000000000000000e+00 0.0000000000000000e+00 0.0000000000000000e+00  0.0000000000000000e+00 0.0000000000000000e+00 0.0000000000000000e+00  0.0000000000000000e+00 0.0000000000000000e+00 0.0000000000000000e+00  0.0000000000000000e+00 0.0000000000000000e+00 0.0000000000000000e+00  0.0000000000000000e+00 0.0000000000000000e+00 0.0000000000000000e+00  0.0000000000000000e+00 0.0000000000000000e+00 0.0000000000000000e+00  0.0000000000000000e+00 0.0000000000000000e+00 0.0000000000000000e+00  0.0000000000000000e+00 0.0000000000000000e+00 0.0000000000000000e+00  0.0000000000000000e+00 0.0000000000000000e+00 0.0000000000000000e+00  0.0000000000000000e+00 0.0000000000000000e+00 0.0000000000000000e+00  0.0000000000000000e+00 0.0000000000000000e+00 0.0000000000000000e+00  0.0000000000000000e+00 0.0000000000000000e+00 0.0000000000000000e+00  0.0000000000000000e+00 0.0000000000000000e+00 0.0000000000000000e+00  0.0000000000000000e+00 0.0000000000000000e+00 0.0000000000000000e+00  0.0000000000000000e+00 0.0000000000000000e+00 0.0000000000000000e+00  0.0000000000000000e+00 0.0000000000000000e+00 0.0000000000000000e+00  0.0000000000000000e+00 0.0000000000000000e+00 0.0000000000000000e+00  0.0000000000000000e+00 0.0000000000000000e+00 0.0000000000000000e+00  0.0000000000000000e+00 0.0000000000000000e+00 0.0000000000000000e+00  0.0000000000000000e+00 0.0000000000000000e+00 0.0000000000000000e+00  0.0000000000000000e+00 0.0000000000000000e+00 0.0000000000000000e+00  0.0000000000000000e+00 0.0000000000000000e+00 0.0000000000000000e+00  0.0000000000000000e+00 0.0000000000000000e+00 0.0000000000000000e+00  0.0000000000000000e+00 0.0000000000000000e+00 0.0000000000000000e+00  0.0000000000000000e+00 0.0000000000000000e+00 0.0000000000000000e+00  0.0000000000000000e+00 0.0000000000000000e+00 0.0000000000000000e+00  0.0000000000000000e+00 0.0000000000000000e+00 0.0000000000000000e+00  0.0000000000000000e+00 0.0000000000000000e+00 0.0000000000000000e+00  0.0000000000000000e+00 0.0000000000000000e+00 0.0000000000000000e+00  0.0000000000000000e+00 0.0000000000000000e+00 0.0000000000000000e+00  0.0000000000000000e+00 0.0000000000000000e+00 0.0000000000000000e+00  0.0000000000000000e+00 0.0000000000000000e+00 0.0000000000000000e+00  0.0000000000000000e+00 0.0000000000000000e+00 0.0000000000000000e+00  0.0000000000000000e+00 0.0000000000000000e+00 0.0000000000000000e+00  0.0000000000000000e+00 0.0000000000000000e+00 0.0000000000000000e+00  0.0000000000000000e+00 0.0000000000000000e+00 0.0000000000000000e+00  0.0000000000000000e+00 0.0000000000000000e+00 0.0000000000000000e+00  0.0000000000000000e+00 0.0000000000000000e+00 0.0000000000000000e+00  0.0000000000000000e+00 0.0000000000000000e+00 0.0000000000000000e+00  1.1932667843451399e-01 5.5120054372473803e-01 0.0000000000000000e+00  9.3041701947794417e-02 4.8911514967107089e-01 0.0000000000000000e+00  1.6915164173301128e-01 3.6878457919780339e-01 0.0000000000000000e+00  7.4646777366286207e-02 2.0377578632102611e-01 0.0000000000000000e+00  8.7777925938906515e-02 1.0537459177817719e-01 0.0000000000000000e+00  3.9309373207954822e-02 -9.4403624250188715e-03 0.0000000000000000e+00  5.4114074219935783e-02 -8.1158250105657900e-02 0.0000000000000000e+00  -5.8212340321875901e-03 -1.5064235179111263e-01 0.0000000000000000e+00  4.0279107017903451e-02 -1.9569188450720951e-01 0.0000000000000000e+00  -1.6013094877411128e-02 -2.2143764903848415e-01 0.0000000000000000e+00  4.2813289923161711e-02 -2.6911117376133586e-01 0.0000000000000000e+00  -1.5634109332104414e-02 -2.7125002759458294e-01 0.0000000000000000e+00  6.2062736898229644e-02 -3.1777766921036416e-01 0.0000000000000000e+00  1.4186847995429295e-02 -3.3670547877199442e-01 0.0000000000000000e+00  6.2792230426268027e-03 -3.0957670586129055e-01 0.0000000000000000e+00  3.6734833899332762e-02 -2.7111117021525832e-01 0.0000000000000000e+00  -2.8678331327330721e-03 -2.9905057169474070e-01 0.0000000000000000e+00  3.0624143775624914e-02 -2.8152344383820138e-01 0.0000000000000000e+00  -1.9372382751095176e-02 -2.8942323458685887e-01 0.0000000000000000e+00  2.9047564413639482e-02 -3.0607279043631386e-01 0.0000000000000000e+00  -4.7554714621303264e-02 -2.9978192511093738e-01 0.0000000000000000e+00  3.5910243093952326e-02 -3.3140018638614643e-01 0.0000000000000000e+00  -4.7346391882452606e-02 -3.5633581659552682e-01 0.0000000000000000e+00  -7.3250489030598345e-02 -3.4881933552638161e-01 0.0000000000000000e+00  -3.9062746844823922e-02 -4.2614508123364570e-01 0.0000000000000000e+00  -7.7361012975979748e-02 -4.0289384939919587e-01 0.0000000000000000e+00  -4.4140809354861255e-02 -4.8462704437759874e-01 0.0000000000000000e+00  -1.0448520887894155e-01 -4.9131379138998088e-01 0.0000000000000000e+00  -6.8346564085037167e-03 -5.1798569536277861e-01 0.0000000000000000e+00  -1.1621265755647245e-01 -5.3023795125868767e-01 0.0000000000000000e+00  -3.7736951604428887e-03 -5.6025411930651237e-01 0.0000000000000000e+00  -1.0487533582922917e-01 -4.9154797036168113e-01 0.0000000000000000e+00  3.6523559138653988e-02 -7.2195653570134033e-01 0.0000000000000000e+00  -5.4621338994619267e-02 -7.2144939236322025e-01 0.0000000000000000e+00  8.1914407002300182e-02 -4.9562629561591809e-01 0.0000000000000000e+00  -2.1651531906659961e-02 -4.8500717123033260e-01 0.0000000000000000e+00  8.1149464664639098e-02 -4.7893049766860385e-01 0.0000000000000000e+00  -3.0112758826379347e-02 -5.6432672230132763e-01 0.0000000000000000e+00  1.1623683112292592e-01 -5.5715947982962721e-01 0.0000000000000000e+00  2.2497254545950859e-02 -5.0764382138566932e-01 0.0000000000000000e+00  1.3965464942531960e-01 -4.1709442746459652e-01 0.0000000000000000e+00  8.7840739712232913e-02 -4.2047457940368294e-01 0.0000000000000000e+00  4.4704123794828611e-02 -3.5957303920240569e-01 0.0000000000000000e+00  1.3775414752172280e-01 -2.4830128046742425e-01 0.0000000000000000e+00  9.7690974784608281e-02 -3.8449734039527661e-01 0.0000000000000000e+00  2.3152408119707049e-01 -3.7604664141295679e-01 0.0000000000000000e+00  2.2216336916179166e-01 -2.5951978075918219e-01 0.0000000000000000e+00  2.4179117751360245e-02 -1.6886822948519292e-01 0.0000000000000000e+00  4.7060772957101080e-02 -1.9297314830097972e-01 0.0000000000000000e+00  1.2820421587806027e-01 -2.6707029872032617e-01 0.0000000000000000e+00  3.8244831919182286e-02 -3.0369429733581538e-01 0.0000000000000000e+00  1.1146717265639654e-01 -3.7104368080415717e-01 0.0000000000000000e+00  5.8024884286212240e-02 -3.6735038405991211e-01 0.0000000000000000e+00  4.9780013358625638e-04 -4.1523383519098112e-01 0.0000000000000000e+00  1.1959702887097566e-01 -4.3153051655377178e-01 0.0000000000000000e+00  -2.1371240734300957e-02 -4.5911172350919016e-01 0.0000000000000000e+00  9.5773701913848930e-02 -4.7398352562144824e-01 0.0000000000000000e+00  -4.2727414680148013e-02 -4.7610459965902718e-01 0.0000000000000000e+00  9.1058475803504679e-02 -4.8283054173275469e-01 0.0000000000000000e+00  -3.1516363993880768e-02 -5.0338947605213114e-01 0.0000000000000000e+00  9.3399424098870434e-02 -5.3564389206497909e-01 0.0000000000000000e+00  -8.5697780104509388e-02 -5.3778072643817532e-01 0.0000000000000000e+00  3.8403574489866817e-02 -5.1272488428649443e-01 0.0000000000000000e+00  -9.2160407000649924e-02 -4.9262284727617983e-01 0.0000000000000000e+00  3.5407163273499583e-02 -4.7526389257707702e-01 0.0000000000000000e+00  -9.5559244440293123e-02 -4.5861880732967819e-01 0.0000000000000000e+00  2.1390193059697620e-02 -4.3322059168952531e-01 0.0000000000000000e+00  -9.2070817889091452e-02 -4.1415295405081609e-01 0.0000000000000000e+00  1.5944093255017149e-02 -3.9384490690476165e-01 0.0000000000000000e+00  -8.4573853625617548e-02 -3.7039569215629653e-01 0.0000000000000000e+00  1.3904612937498674e-02 -3.6080320681659084e-01 0.0000000000000000e+00  -3.6737536532303716e-02 -3.3800098946906476e-01 0.0000000000000000e+00  -6.6592766075524529e-02 -3.3726458986447444e-01 0.0000000000000000e+00  -5.2072616114460365e-03 -3.0076525197996845e-01 0.0000000000000000e+00  -5.4182925493120260e-02 -3.0647409236731588e-01 0.0000000000000000e+00  4.3002848203428567e-03 -3.0436700327412269e-01 0.0000000000000000e+00  -4.8102635131916288e-02 -3.0393385021111724e-01 0.0000000000000000e+00  3.6457753094317441e-03 -3.0092130620493013e-01 0.0000000000000000e+00  -4.2499633686328288e-02 -2.9312476444988633e-01 0.0000000000000000e+00  1.0423722695634493e-02 -3.0619293191032393e-01 0.0000000000000000e+00  -1.2042077722078676e-02 -3.0459390820472476e-01 0.0000000000000000e+00  -7.9120627958011336e-02 -3.1429855628257902e-01 0.0000000000000000e+00  -4.4312680454900617e-03 -2.7700706560650534e-01 0.0000000000000000e+00  -8.5061215784689392e-02 -2.6400079111104813e-01 0.0000000000000000e+00  -1.6925790919847323e-02 -2.3043382076842442e-01 0.0000000000000000e+00  -7.8144693810309737e-02 -1.9749390032717717e-01 0.0000000000000000e+00  -2.0178964257696986e-02 -1.5243276206342718e-01 0.0000000000000000e+00  -5.9550995767964632e-02 -9.4906246955198295e-02 0.0000000000000000e+00  -2.6889380452719529e-02 -1.6728563396161657e-02 0.0000000000000000e+00  -4.3140434385036577e-02 9.1941739145209297e-02 0.0000000000000000e+00  7.1851340387667269e-03 1.5608667370074122e-01 0.0000000000000000e+00  -1.1170361350496526e-01 3.7020904735206439e-01 0.0000000000000000e+00  -1.7894753016661891e-01 6.4594824825777319e-01 0.0000000000000000e+00  -2.0125555920286961e-01 5.6536861893253865e-01 0.0000000000000000e+00  -1.0703315274373624e-02 -3.2743859135353365e-01 0.0000000000000000e+00  -1.4004856166601454e-02 1.9533848210486995e-01 0.0000000000000000e+00  5.8911528938616854e-03 2.5270101884610457e-01 0.0000000000000000e+00  1.0029282138989216e-02 3.5851281680172525e-01 0.0000000000000000e+00  -4.1188441619641115e-02 -2.2932160693754514e-01 0.0000000000000000e+00  1.6539104930388085e-02 4.0026224710248182e-01 0.0000000000000000e+00  1.0157891055673163e-02 -5.5859687400771220e-02 0.0000000000000000e+00  1.8816922895138193e-02 3.9259109809228560e-01 0.0000000000000000e+00  4.8169839045551941e-03 1.3917187019888067e-01 0.0000000000000000e+00  -6.1243061271555794e-04 1.9462941851211721e-01 0.0000000000000000e+00  -4.7753009534155899e-02 4.4201558394621959e-01 0.0000000000000000e+00  5.3186190314960819e-03 2.3872129865489489e-01 0.0000000000000000e+00  -1.8536246025472561e-02 4.0327863848035095e-01 0.0000000000000000e+00  -3.8963362862264425e-03 2.1880231632437389e-01 0.0000000000000000e+00  -8.5674640117854969e-05 2.3603952642920453e-01 0.0000000000000000e+00  -1.1200703596862625e-02 3.7606584257949055e-01 0.0000000000000000e+00  3.9514599883022160e-02 4.4342339705186107e-01 0.0000000000000000e+00  -7.6656064156591132e-03 2.4158067272129599e-01 0.0000000000000000e+00  -5.2318300187985164e-03 3.3748686166960890e-01 0.0000000000000000e+00  -1.5213430434533612e-03 2.4865212860054828e-01 0.0000000000000000e+00  -1.2345279053048669e-02 2.9743696740029457e-01 0.0000000000000000e+00  6.9470478958890232e-03 2.2507387367130330e-01 0.0000000000000000e+00  -1.1172419834644578e-03 2.0015503695102455e-01 0.0000000000000000e+00  -8.3484044345077876e-03 2.6749062805755391e-01 0.0000000000000000e+00  5.5728431865507237e-03 6.1209349665316638e-02 0.0000000000000000e+00  2.0308530563576187e-03 1.8410905776366648e-01 0.0000000000000000e+00  -7.3136973118696297e-02 -2.9669986350531152e-01 0.0000000000000000e+00  -5.6371467763208965e-04 2.7038994634889368e-01 0.0000000000000000e+00  -1.6035300043487896e-02 2.8121542602567845e-01 0.0000000000000000e+00  3.0081987027354758e-02 -8.7527681954091024e-02 0.0000000000000000e+00  1.4577491120703476e-02 1.2369789371279886e-01 0.0000000000000000e+00  2.8468828298477585e-03 2.8539723361810987e-01 0.0000000000000000e+00  -5.4316992601769363e-03 2.7339703512032149e-01 0.0000000000000000e+00  -1.1100014343414797e-02 1.6875749257461553e-01 0.0000000000000000e+00  2.8534157310313099e-03 2.6607511849965848e-01 0.0000000000000000e+00  1.3991260759829809e-02 1.4594836453824067e-01 0.0000000000000000e+00  -4.8821068354061608e-04 1.7054660654081924e-01 0.0000000000000000e+00  1.3293151772349270e-03 2.5666883750840669e-01 0.0000000000000000e+00  -1.7182355613083742e-03 3.5508580789581562e-01 0.0000000000000000e+00  1.2325819313472448e-02 1.9338512532893046e-01 0.0000000000000000e+00  5.9500626017703817e-03 2.1259687970070268e-01 0.0000000000000000e+00  -4.8231471975399162e-02 -3.1238899926289931e-01 0.0000000000000000e+00  1.1048251973321895e-01 -2.7816536442374096e-01 0.0000000000000000e+00  -1.2466217219325382e-01 1.5285358894201045e-01 0.0000000000000000e+00  2.0325923595497411e-02 -2.9584057054154483e-01 0.000