<?xml version="1.0"?>
<VTKFile type="UnstructuredGrid"  version="0.1"  >
<UnstructuredGrid>
<Piece  NumberOfPoints="1419" NumberOfCells="2698">
<Points>
<DataArray  type="Float64"  NumberOfComponents="3"  format="ascii">1.613405471784338e-07 -2.692587262169589e-06 0  1.911187134616975e-07 0.4099972954492559 0  2.500000394107375 -4.112433641586078e-06 0  2.500000394107418 0.4099958875663942 0  0.6000004395639241 0.1899957514989898 0  0.6000004855361893 0.2099957450091992 0  0.25 0.2 0  0.1500001739839362 0.199997328075937 0  0.2489897948556636 0.21 0  0.2489897948556636 0.19 0  0.6000004750883108 0.1999957323306931 0  1.907399333169999e-07 0.3807115820153619 0  1.896674882392732e-07 0.3514258700455062 0  1.878921997354251e-07 0.3221401591911588 0  1.854583228795695e-07 0.2928544487026756 0  1.825109541280342e-07 0.263568738006681 0  1.791772439317374e-07 0.2342830267202148 0  1.756170348246949e-07 0.2049973142680168 0  1.721051209742788e-07 0.1757116007550112 0  1.68896863237968e-07 0.1464258860784007 0  1.661391885270017e-07 0.1171401704597399 0  1.64032511650759e-07 0.08785445425654181 0  1.62508664284333e-07 0.05856873798408065 0  1.616208371409114e-07 0.02928302221474752 0  0.03015459864874138 -2.693168226270542e-06 0  0.06140017996179727 -2.695270590351854e-06 0  0.09377639926718576 -2.700027768050281e-06 0  0.127324152127681 -2.709419156306321e-06 0  0.1620858401136977 -2.727007616927081e-06 0  0.1981053957759355 -2.761581050968692e-06 0  0.2354283371278701 -2.826448670201977e-06 0  0.2741018150818296 -2.930692214269507e-06 0  0.3141747190071911 -3.076314109030135e-06 0  0.3556976759915794 -3.259108310993838e-06 0  0.3987231607987413 -3.457457366815438e-06 0  0.443305541810467 -3.647563920475736e-06 0  0.4895011464004468 -3.812752946615861e-06 0  0.5373683658687476 -3.938737249225333e-06 0  0.5869676692800108 -4.021961308602895e-06 0  0.6383617257264851 -4.072098300326123e-06 0  0.6916154868951615 -4.096609302210394e-06 0  0.7467962415014595 -4.107322485768988e-06 0  0.8039737335528477 -4.11165218686515e-06 0  0.8632202040739246 -4.11306606053881e-06 0  0.924610524506021 -4.11329114918201e-06 0  0.9882222738440506 -4.113126248628224e-06 0  1.054135838885676 -4.112921322230673e-06 0  1.122434494188715 -4.112749052537199e-06 0  1.193204570987006 -4.112623788895809e-06 0  1.266535483841213 -4.112543703934696e-06 0  1.342519910072052 -4.112496497690095e-06 0  1.421253842566468 -4.112468515199922e-06 0  1.502836783190086 -4.112452086184011e-06 0  1.587371833854006 -4.112443234011533e-06 0  1.674965812878516 -4.112438547176072e-06 0  1.765729395929858 -4.112436052263168e-06 0  1.859777302985953 -4.112434825594708e-06 0  1.95722837159375 -4.112434182341049e-06 0  2.058205723977003 -4.112433889489423e-06 0  2.162836985297201 -4.112433740030147e-06 0  2.271254351398193 -4.112433676697051e-06 0  2.383594840910789 -4.112433649592551e-06 0  2.50000039410738 0.1024958875661247 0  2.500000394107398 0.2049958875658503 0  2.500000394107413 0.3074958875661073 0  2.383594840911086 0.4099958875664019 0  2.271254351398778 0.4099958875664301 0  2.162836985298147 0.4099958875664961 0  2.058205723978504 0.4099958875666387 0  1.957228371596163 0.4099958875669285 0  1.859777302990198 0.4099958875676032 0  1.765729395937353 0.4099958875688262 0  1.674965812892602 0.409995887571425 0  1.587371833880126 0.4099958875761266 0  1.502836783238904 0.4099958875850847 0  1.421253842658183 0.4099958876024055 0  1.342519910236674 0.4099958876318459 0  1.266535484131116 0.4099958876833641 0  1.193204571501409 0.4099958877805137 0  1.122434495082014 0.4099958879550392 0  1.054135840365899 0.4099958882474951 0  0.9882222763186876 0.4099958888288358 0  0.9246105284948514 0.4099958899000627 0  0.8632202104717015 0.4099958919598539 0  0.803973743560627 0.4099958960990978 0  0.7467962567656141 0.409995904442564 0  0.6916155091868695 0.4099959207914656 0  0.638361756689242 0.4099959528651165 0  0.5869677103880226 0.4099960085276129 0  0.5373684165867646 0.4099960955568136 0  0.489501205460605 0.409996221119688 0  0.4433056082364933 0.4099963791539212 0  0.3987232328307809 0.4099965581237062 0  0.3556977509656841 0.4099967421951811 0  0.3141747939489763 0.4099969120296842 0  0.2741018859531222 0.4099970512155661 0  0.2354284017455515 0.4099971501330553 0  0.1981054526208606 0.4099972146422383 0  0.1620858890074164 0.4099972522741605 0  0.1273241940389398 0.4099972731709046 0  0.09377643568476941 0.4099972851799481 0  0.06140021259593617 0.4099972914090453 0  0.03015462906783615 0.4099972946422948 0  0.2497468076502589 0.2050254481002335 0  0.2497468076502614 0.1949745518997913 0  0.2469965700616717 0.1829304298606474 0  0.2439894436993595 0.1762298963582695 0  0.2400333027216081 0.170042318018996 0  0.235213498252169 0.1645010892857431 0  0.2296340130424831 0.1597257008703083 0  0.223415217293307 0.1558191576075098 0  0.2166912732242385 0.1528657249179506 0  0.2096072406320842 0.1509291110668312 0  0.202315947967927 0.1500510871018935 0  0.1949746943022911 0.1502505939047202 0  0.1877418570240421 0.1515233226705846 0  0.1807734741824212 0.1538418148358684 0  0.1742198788718441 0.1571560498574697 0  0.1682224554384043 0.1613945271973446 0  0.1629105898765305 0.1664658064657379 0  0.158398877984106 0.1722604817951426 0  0.1547846536185828 0.1786535407675494 0  0.1521458884251306 0.185507062189578 0  0.150539510135603 0.1926731909196152 0  0.1505395155031234 0.2073214659047146 0  0.1521458992134074 0.2144875967396147 0  0.1547846697093406 0.2213411218099349 0  0.1583988994607473 0.2277341864293871 0  0.1629106166492572 0.2335288697693414 0  0.1682224876024625 0.2386001605887856 0  0.1742199163081674 0.2428386534559101 0  0.1807735169912753 0.2461529100001374 0  0.1877419051446973 0.248471431713333 0  0.1949747477746203 0.2497442011284897 0  0.2023160067263321 0.2499437615571241 0  0.20960730480048 0.2490658122208811 0  0.2166913425670135 0.2471292962575917 0  0.2234152917345253 0.2441759996248981 0  0.2296340924474422 0.2402696397722786 0  0.2352135818685811 0.2354945084662404 0  0.2400333893066903 0.2299536357705348 0  0.2439895296593931 0.2237666106707177 0  0.2469966447833275 0.2170670078889707 0  0.2564582264721982 0.2099987688148374 0  0.263926568020515 0.2099983583156858 0  0.2713949144367551 0.209998092182078 0  0.2788632266060686 0.2099978800178327 0  0.2863315410254779 0.2099976993169875 0  0.2937998422419326 0.2099975434572326 0  0.3012681480027187 0.2099974060392555 0  0.3087364491150034 0.2099972805448282 0  0.3162047541513949 0.209997164485947 0  0.3236730540080485 0.2099970574185617 0  0.331141361280862 0.2099969582607165 0  0.3386096604208447 0.2099968663328439 0  0.3460779679950955 0.2099967765986796 0  0.3535462679607056 0.209996681837908 0  0.3610145669542174 0.209996623858533 0  0.3684828712060454 0.2099965597569977 0  0.3759511643192635 0.2099964933825403 0  0.383419465859289 0.2099964295749173 0  0.390887756132071 0.209996367187175 0  0.3983560563341113 0.2099963057336499 0  0.4058243436187723 0.209996246785712 0  0.4132926429262469 0.2099961788275667 0  0.420760926470177 0.2099960983019159 0  0.4282292283525707 0.209996063283467 0  0.435697541271146 0.2099960051626032 0  0.4431658481025708 0.2099959648056958 0  0.4506341708533426 0.2099959170887833 0  0.4581024849300215 0.2099958872769773 0  0.4655708244696257 0.2099958273842999 0  0.473039145207437 0.2099957829573965 0  0.4805074841640306 0.2099957912883443 0  0.4879757973414849 0.2099957875537259 0  0.4954441319913959 0.209995720262273 0  0.5029124411716532 0.2099956906325617 0  0.5103807743794258 0.2099957245889625 0  0.5178490836974639 0.2099956998613862 0  0.525317411502578 0.2099956680039235 0  0.5327857279017394 0.2099956511303849 0  0.5402540661552544 0.2099956428121539 0  0.5477223856728108 0.2099956325363582 0  0.5551907177691112 0.2099956416899078 0  0.5626590334706936 0.2099956271931295 0  0.5701273231962113 0.209995664827605 0  0.5775956271713499 0.2099956932129673 0  0.5850639188777085 0.2099956947405682 0  0.5925322131284154 0.2099957099065626 0  0.6000004887547329 0.2049957325137511 0  0.6000004529506449 0.1949957422151366 0  0.592532138849185 0.1899957295203465 0  0.5850638429384037 0.1899956995115935 0  0.5775955290272233 0.1899956720334081 0  0.5701272261443544 0.1899956458335241 0  0.5626589143754096 0.1899956098024603 0  0.5551905960594115 0.1899956165622733 0  0.5477222904189257 0.1899956097590189 0  0.5402539613150985 0.1899956072763773 0  0.5327856528642241 0.1899956145576999 0  0.5253173231198213 0.189995628489014 0  0.5178490171245884 0.1899956432072556 0  0.5103806991922949 0.1899956542767679 0  0.5029123890555498 0.1899956649117216 0  0.495444050410086 0.1899956830889603 0  0.4879757408662493 0.1899957078708559 0  0.4805074211448287 0.1899957316016727 0  0.4730391104191424 0.1899957549085493 0  0.4655707692876925 0.1899957855868117 0  0.4581024588542919 0.1899958273085606 0  0.4506341354766982 0.1899958755566044 0  0.4431658308741263 0.1899959258666324 0  0.435697506275277 0.1899959795791714 0  0.4282292015333937 0.1899960339089648 0  0.4207608865788597 0.1899960769033421 0  0.4132925775007463 0.1899961566736752 0  0.4058242779808596 0.189996228575009 0  0.398355968664476 0.1899962947660662 0  0.3908876680676074 0.1899963605972262 0  0.3834193585797989 0.1899964259898737 0  0.3759510568964847 0.1899964919943054 0  0.368482748229671 0.1899965592600201 0  0.3610144476692788 0.1899966245284164 0  0.3535461387336662 0.1899966860155811 0  0.3460778292364826 0.1899967793177567 0  0.3386095267720693 0.1899968704837095 0  0.3311412179729576 0.1899969637844867 0  0.3236729176560703 0.1899970625408102 0  0.3162046131116158 0.189997169114856 0  0.308736314008672 0.189997283559247 0  0.3012680123199059 0.1899974088380112 0  0.2937997110260056 0.1899975476857254 0  0.2863314024798754 0.1899977021205294 0  0.2788630974126633 0.1899978746426047 0  0.2713947626211571 0.1899980995805842 0  0.2639264393431452 0.1899983949292852 0  0.256458112914175 0.1899987770477594 0  
[...]
<PointData  Vectors="f_30-0"> 
<DataArray  type="Float64"  Name="f_30-0"  NumberOfComponents="3" format="ascii">0.0000000000000000e+00 0.0000000000000000e+00 0.0000000000000000e+00  0.0000000000000000e+00 0.0000000000000000e+00 0.0000000000000000e+00  0.0000000000000000e+00 0.0000000000000000e+00 0.0000000000000000e+00  0.0000000000000000e+00 0.0000000000000000e+00 0.0000000000000000e+00  7.4701435018332152e-02 -1.5158821160596642e-01 0.0000000000000000e+00  1.7012365519845354e-01 -1.3497977092644473e-01 0.0000000000000000e+00  0.0000000000000000e+00 0.0000000000000000e+00 0.0000000000000000e+00  0.0000000000000000e+00 0.0000000000000000e+00 0.0000000000000000e+00  0.0000000000000000e+00 0.0000000000000000e+00 0.0000000000000000e+00  0.0000000000000000e+00 0.0000000000000000e+00 0.0000000000000000e+00  2.8428077334268004e-01 -3.0208132198930676e-01 0.0000000000000000e+00  0.0000000000000000e+00 0.0000000000000000e+00 0.0000000000000000e+00  0.0000000000000000e+00 0.0000000000000000e+00 0.0000000000000000e+00  0.0000000000000000e+00 0.0000000000000000e+00 0.0000000000000000e+00  0.0000000000000000e+00 0.0000000000000000e+00 0.0000000000000000e+00  0.0000000000000000e+00 0.0000000000000000e+00 0.0000000000000000e+00  0.0000000000000000e+00 0.0000000000000000e+00 0.0000000000000000e+00  0.0000000000000000e+00 0.0000000000000000e+00 0.0000000000000000e+00  0.0000000000000000e+00 0.0000000000000000e+00 0.0000000000000000e+00  0.0000000000000000e+00 0.0000000000000000e+00 0.0000000000000000e+00  0.0000000000000000e+00 0.0000000000000000e+00 0.0000000000000000e+00  0.0000000000000000e+00 0.0000000000000000e+00 0.0000000000000000e+00  0.0000000000000000e+00 0.0000000000000000e+00 0.0000000000000000e+00  0.0000000000000000e+00 0.0000000000000000e+00 0.0000000000000000e+00  0.0000000000000000e+00 0.0000000000000000e+00 0.0000000000000000e+00  0.0000000000000000e+00 0.0000000000000000e+00 0.0000000000000000e+00  0.0000000000000000e+00 0.0000000000000000e+00 0.0000000000000000e+00  0.0000000000000000e+00 0.0000000000000000e+00 0.0000000000000000e+00  0.0000000000000000e+00 0.0000000000000000e+00 0.0000000000000000e+00  0.0000000000000000e+00 0.0000000000000000e+00 0.0000000000000000e+00  0.0000000000000000e+00 0.0000000000000000e+00 0.0000000000000000e+00  0.0000000000000000e+00 0.0000000000000000e+00 0.0000000000000000e+00  0.0000000000000000e+00 0.0000000000000000e+00 0.0000000000000000e+00  0.0000000000000000e+00 0.0000000000000000e+00 0.0000000000000000e+00  0.0000000000000000e+00 0.0000000000000000e+00 0.0000000000000000e+00  0.0000000000000000e+00 0.0000000000000000e+00 0.0000000000000000e+00  0.0000000000000000e+00 0.0000000000000000e+00 0.0000000000000000e+00  0.0000000000000000e+00 0.0000000000000000e+00 0.0000000000000000e+00  0.0000000000000000e+00 0.0000000000000000e+00 0.0000000000000000e+00  0.0000000000000000e+00 0.0000000000000000e+00 0.0000000000000000e+00  0.0000000000000000e+00 0.0000000000000000e+00 0.0000000000000000e+00  0.0000000000000000e+00 0.0000000000000000e+00 0.0000000000000000e+00  0.0000000000000000e+00 0.0000000000000000e+00 0.0000000000000000e+00  0.0000000000000000e+00 0.0000000000000000e+00 0.0000000000000000e+00  0.0000000000000000e+00 0.0000000000000000e+00 0.0000000000000000e+00  0.0000000000000000e+00 0.0000000000000000e+00 0.0000000000000000e+00  0.0000000000000000e+00 0.0000000000000000e+00 0.0000000000000000e+00  0.0000000000000000e+00 0.0000000000000000e+00 0.0000000000000000e+00  0.0000000000000000e+00 0.0000000000000000e+00 0.0000000000000000e+00  0.0000000000000000e+00 0.0000000000000000e+00 0.0000000000000000e+00  0.0000000000000000e+00 0.0000000000000000e+00 0.0000000000000000e+00  0.0000000000000000e+00 0.0000000000000000e+00 0.0000000000000000e+00  0.0000000000000000e+00 0.0000000000000000e+00 0.0000000000000000e+00  0.0000000000000000e+00 0.0000000000000000e+00 0.0000000000000000e+00  0.0000000000000000e+00 0.0000000000000000e+00 0.0000000000000000e+00  0.0000000000000000e+00 0.0000000000000000e+00 0.0000000000000000e+00  0.0000000000000000e+00 0.0000000000000000e+00 0.0000000000000000e+00  0.0000000000000000e+00 0.0000000000000000e+00 0.0000000000000000e+00  0.0000000000000000e+00 0.0000000000000000e+00 0.0000000000000000e+00  0.0000000000000000e+00 0.0000000000000000e+00 0.0000000000000000e+00  0.0000000000000000e+00 0.0000000000000000e+00 0.0000000000000000e+00  0.0000000000000000e+00 0.0000000000000000e+00 0.0000000000000000e+00  1.0991683857989446e-08 3.8945480300856848e-09 0.0000000000000000e+00  -2.2784546341375568e-10 5.7356629754868410e-09 0.0000000000000000e+00  -1.1299434596283982e-08 4.3982583128922587e-09 0.0000000000000000e+00  0.0000000000000000e+00 0.0000000000000000e+00 0.0000000000000000e+00  0.0000000000000000e+00 0.0000000000000000e+00 0.0000000000000000e+00  0.0000000000000000e+00 0.0000000000000000e+00 0.0000000000000000e+00  0.0000000000000000e+00 0.0000000000000000e+00 0.0000000000000000e+00  0.0000000000000000e+00 0.0000000000000000e+00 0.0000000000000000e+00  0.0000000000000000e+00 0.0000000000000000e+00 0.0000000000000000e+00  0.0000000000000000e+00 0.0000000000000000e+00 0.0000000000000000e+00  0.0000000000000000e+00 0.0000000000000000e+00 0.0000000000000000e+00  0.0000000000000000e+00 0.0000000000000000e+00 0.0000000000000000e+00  0.0000000000000000e+00 0.0000000000000000e+00 0.0000000000000000e+00  0.0000000000000000e+00 0.0000000000000000e+00 0.0000000000000000e+00  0.0000000000000000e+00 0.0000000000000000e+00 0.0000000000000000e+00  0.0000000000000000e+00 0.0000000000000000e+00 0.0000000000000000e+00  0.0000000000000000e+00 0.0000000000000000e+00 0.0000000000000000e+00  0.0000000000000000e+00 0.0000000000000000e+00 0.0000000000000000e+00  0.0000000000000000e+00 0.0000000000000000e+00 0.0000000000000000e+00  0.0000000000000000e+00 0.0000000000000000e+00 0.0000000000000000e+00  0.0000000000000000e+00 0.0000000000000000e+00 0.0000000000000000e+00  0.0000000000000000e+00 0.0000000000000000e+00 0.0000000000000000e+00  0.0000000000000000e+00 0.0000000000000000e+00 0.0000000000000000e+00  0.0000000000000000e+00 0.0000000000000000e+00 0.0000000000000000e+00  0.0000000000000000e+00 0.0000000000000000e+00 0.0000000000000000e+00  0.0000000000000000e+00 0.0000000000000000e+00 0.0000000000000000e+00  0.0000000000000000e+00 0.0000000000000000e+00 0.0000000000000000e+00  0.0000000000000000e+00 0.0000000000000000e+00 0.0000000000000000e+00  0.0000000000000000e+00 0.0000000000000000e+00 0.0000000000000000e+00  0.0000000000000000e+00 0.0000000000000000e+00 0.0000000000000000e+00  0.0000000000000000e+00 0.0000000000000000e+00 0.0000000000000000e+00  0.0000000000000000e+00 0.0000000000000000e+00 0.0000000000000000e+00  0.0000000000000000e+00 0.0000000000000000e+00 0.0000000000000000e+00  0.0000000000000000e+00 0.0000000000000000e+00 0.0000000000000000e+00  0.0000000000000000e+00 0.0000000000000000e+00 0.0000000000000000e+00  0.0000000000000000e+00 0.0000000000000000e+00 0.0000000000000000e+00  0.0000000000000000e+00 0.0000000000000000e+00 0.0000000000000000e+00  0.0000000000000000e+00 0.0000000000000000e+00 0.0000000000000000e+00  0.0000000000000000e+00 0.0000000000000000e+00 0.0000000000000000e+00  0.0000000000000000e+00 0.0000000000000000e+00 0.0000000000000000e+00  0.0000000000000000e+00 0.0000000000000000e+00 0.0000000000000000e+00  0.0000000000000000e+00 0.0000000000000000e+00 0.0000000000000000e+00  0.0000000000000000e+00 0.0000000000000000e+00 0.0000000000000000e+00  0.0000000000000000e+00 0.0000000000000000e+00 0.0000000000000000e+00  0.0000000000000000e+00 0.0000000000000000e+00 0.0000000000000000e+00  0.0000000000000000e+00 0.0000000000000000e+00 0.0000000000000000e+00  0.0000000000000000e+00 0.0000000000000000e+00 0.0000000000000000e+00  0.0000000000000000e+00 0.0000000000000000e+00 0.0000000000000000e+00  0.0000000000000000e+00 0.0000000000000000e+00 0.0000000000000000e+00  0.0000000000000000e+00 0.0000000000000000e+00 0.0000000000000000e+00  0.0000000000000000e+00 0.0000000000000000e+00 0.0000000000000000e+00  0.0000000000000000e+00 0.0000000000000000e+00 0.0000000000000000e+00  0.0000000000000000e+00 0.0000000000000000e+00 0.0000000000000000e+00  0.0000000000000000e+00 0.0000000000000000e+00 0.0000000000000000e+00  0.0000000000000000e+00 0.0000000000000000e+00 0.0000000000000000e+00  0.0000000000000000e+00 0.0000000000000000e+00 0.0000000000000000e+00  0.0000000000000000e+00 0.0000000000000000e+00 0.0000000000000000e+00  0.0000000000000000e+00 0.0000000000000000e+00 0.0000000000000000e+00  0.0000000000000000e+00 0.0000000000000000e+00 0.0000000000000000e+00  0.0000000000000000e+00 0.0000000000000000e+00 0.0000000000000000e+00  0.0000000000000000e+00 0.0000000000000000e+00 0.0000000000000000e+00  0.0000000000000000e+00 0.0000000000000000e+00 0.0000000000000000e+00  0.0000000000000000e+00 0.0000000000000000e+00 0.0000000000000000e+00  0.0000000000000000e+00 0.0000000000000000e+00 0.0000000000000000e+00  0.0000000000000000e+00 0.0000000000000000e+00 0.0000000000000000e+00  0.0000000000000000e+00 0.0000000000000000e+00 0.0000000000000000e+00  0.0000000000000000e+00 0.0000000000000000e+00 0.0000000000000000e+00  0.0000000000000000e+00 0.0000000000000000e+00 0.0000000000000000e+00  0.0000000000000000e+00 0.0000000000000000e+00 0.0000000000000000e+00  0.0000000000000000e+00 0.0000000000000000e+00 0.0000000000000000e+00  0.0000000000000000e+00 0.0000000000000000e+00 0.0000000000000000e+00  0.0000000000000000e+00 0.0000000000000000e+00 0.0000000000000000e+00  0.0000000000000000e+00 0.0000000000000000e+00 0.0000000000000000e+00  0.0000000000000000e+00 0.0000000000000000e+00 0.0000000000000000e+00  0.0000000000000000e+00 0.0000000000000000e+00 0.0000000000000000e+00  0.0000000000000000e+00 0.0000000000000000e+00 0.0000000000000000e+00  0.0000000000000000e+00 0.0000000000000000e+00 0.0000000000000000e+00  0.0000000000000000e+00 0.0000000000000000e+00 0.0000000000000000e+00  0.0000000000000000e+00 0.0000000000000000e+00 0.0000000000000000e+00  0.0000000000000000e+00 0.0000000000000000e+00 0.0000000000000000e+00  0.0000000000000000e+00 0.0000000000000000e+00 0.0000000000000000e+00  8.0213995434799568e-02 8.3346544045804050e-01 0.0000000000000000e+00  4.8138895031323535e-02 7.9288655011919285e-01 0.0000000000000000e+00  2.9503823997110867e-01 6.4176504952645974e-01 0.0000000000000000e+00  1.3862599763823660e-01 3.9998151315727914e-01 0.0000000000000000e+00  1.7993685600521825e-01 2.5122697187631604e-01 0.0000000000000000e+00  7.4519986300491448e-02 1.1635103860901315e-01 0.0000000000000000e+00  9.3079659510229534e-02 2.4450304357605271e-02 0.0000000000000000e+00  2.7462900340850659e-02 -7.8093176831006653e-02 0.0000000000000000e+00  5.3774902389845905e-02 -1.5889178839034232e-01 0.0000000000000000e+00  -3.6321413382265264e-03 -1.9994506000651813e-01 0.0000000000000000e+00  4.6095954988721981e-02 -2.7231822364957287e-01 0.0000000000000000e+00  -1.5300909892476797e-02 -2.7782933793984615e-01 0.0000000000000000e+00  6.5464619963754869e-02 -3.4498750595545369e-01 0.0000000000000000e+00  1.8464357433873223e-02 -3.7978061200120794e-01 0.0000000000000000e+00  4.9028800831645188e-03 -3.4999452416831894e-01 0.0000000000000000e+00  3.7858609111790481e-02 -3.1542598882282602e-01 0.0000000000000000e+00  -1.4631415557116802e-02 -3.4746166531306399e-01 0.0000000000000000e+00  1.9111048994586943e-02 -3.4524655498150020e-01 0.0000000000000000e+00  -4.9835494699072586e-02 -3.5082609006208926e-01 0.0000000000000000e+00  -6.6066678411671126e-03 -4.0503223488830070e-01 0.0000000000000000e+00  -1.2512356528828336e-01 -3.5453228582064145e-01 0.0000000000000000e+00  -2.3944602666581685e-02 -4.6685521863775098e-01 0.0000000000000000e+00  -1.7457170113930853e-01 -5.1152125451348840e-01 0.0000000000000000e+00  -2.0697149383587857e-01 -4.7656826362858218e-01 0.0000000000000000e+00  -1.9912414886863103e-01 -8.6832331881847546e-01 0.0000000000000000e+00  -1.9609246635963634e-01 -6.6501220978594910e-01 0.0000000000000000e+00  -1.8905826333543205e-01 -8.6577577037535569e-01 0.0000000000000000e+00  -2.7367054933803148e-01 -5.2675619761091053e-01 0.0000000000000000e+00  1.0572319248931486e-01 -9.9506119097952661e-01 0.0000000000000000e+00  -1.7379914282713579e-01 -1.3124191254464459e+00 0.0000000000000000e+00  7.0499902033616418e-02 -6.3311078117798947e-01 0.0000000000000000e+00  -9.4955019749321579e-02 -2.1433571739946392e-01 0.0000000000000000e+00  3.2912783424206410e-01 -9.2992629030862095e-01 0.0000000000000000e+00  -2.1561866687794720e-01 -1.1791907708710767e+00 0.0000000000000000e+00  1.6157394876932032e-01 -2.5833059517685292e-01 0.0000000000000000e+00  1.2987836212393033e-02 -5.1816272250916084e-01 0.0000000000000000e+00  9.4851240739976875e-02 -7.7934583173055916e-01 0.0000000000000000e+00  -5.5937826302104587e-02 -8.4698747606195057e-01 0.0000000000000000e+00  2.4311712164465704e-01 -8.1660666966794215e-01 0.0000000000000000e+00  1.4596478379715885e-01 -9.3641955187369885e-01 0.0000000000000000e+00  2.9594511739685048e-01 -5.5068865737553163e-01 0.0000000000000000e+00  2.5349038794712880e-01 -5.6583318241239933e-01 0.0000000000000000e+00  1.5969269687867926e-01 -5.0553052129938536e-01 0.0000000000000000e+00  2.5668475622272191e-01 -2.7480763367040056e-01 0.0000000000000000e+00  2.4177380662158127e-01 -5.9157768895100682e-01 0.0000000000000000e+00  4.3621044936828796e-01 -7.2919686071156720e-01 0.0000000000000000e+00  4.2443155195352494e-01 -4.2941387210642951e-01 0.0000000000000000e+00  9.4113221979736206e-02 -2.4006772931255940e-01 0.0000000000000000e+00  1.2124604318179569e-01 -2.7467534016101341e-01 0.0000000000000000e+00  2.2507967197201198e-01 -3.6597019158502631e-01 0.0000000000000000e+00  8.5806112748427144e-02 -4.1343745477988464e-01 0.0000000000000000e+00  1.9127024315153998e-01 -5.1051522258899584e-01 0.0000000000000000e+00  1.0893901456920575e-01 -5.0760962963422718e-01 0.0000000000000000e+00  5.9702573583128637e-02 -5.8771467434573199e-01 0.0000000000000000e+00  2.1977681229148413e-01 -6.5410660871984361e-01 0.0000000000000000e+00  -2.1508273738736997e-02 -6.8949087083596750e-01 0.0000000000000000e+00  1.1735425491779147e-01 -6.8321873040895598e-01 0.0000000000000000e+00  -1.0639901256157304e-01 -6.4422382536539369e-01 0.0000000000000000e+00  1.0077262115418195e-01 -5.7996537260510006e-01 0.0000000000000000e+00  3.6395220013647075e-02 -5.9588039261738890e-01 0.0000000000000000e+00  1.7730445355850738e-01 -6.9218661584717056e-01 0.0000000000000000e+00  -1.4332577955402273e-01 -6.8697121695367103e-01 0.0000000000000000e+00  4.7633373806790232e-02 -6.2372419352915820e-01 0.0000000000000000e+00  -1.1068083133366184e-02 -6.7003076893591074e-01 0.0000000000000000e+00  1.5903184678937926e-01 -7.8911628156791291e-01 0.0000000000000000e+00  -1.9203933313334198e-01 -7.8846558686258794e-01 0.0000000000000000e+00  -2.7352698281431533e-02 -7.0219603298883326e-01 0.0000000000000000e+00  -1.6725035892916970e-01 -6.6441864991589594e-01 0.0000000000000000e+00  9.1605899052970858e-03 -6.4243500474942827e-01 0.0000000000000000e+00  -1.8738289582509962e-01 -6.0360146233843792e-01 0.0000000000000000e+00  -4.4343382176738833e-02 -5.4503453089160869e-01 0.0000000000000000e+00  -9.0957453057679424e-02 -4.8873963083149852e-01 0.0000000000000000e+00  -1.3944016249422889e-01 -4.7895014997430951e-01 0.0000000000000000e+00  -5.0942208721276021e-02 -4.0145661553599266e-01 0.0000000000000000e+00  -1.0855924243378746e-01 -3.9089637888947015e-01 0.0000000000000000e+00  -2.4979970067532484e-02 -3.7337967364359864e-01 0.0000000000000000e+00  -8.8584017675433543e-02 -3.6508072767779537e-01 0.0000000000000000e+00  -2.2048508086919529e-02 -3.5253723021243621e-01 0.0000000000000000e+00  -7.5208946794081799e-02 -3.3798297310154213e-01 0.0000000000000000e+00  -9.8589116788807066e-03 -3.4426942165605651e-01 0.0000000000000000e+00  -3.2150196261187203e-02 -3.3685945102863074e-01 0.0000000000000000e+00  -1.0630819896375646e-01 -3.4198039482246551e-01 0.0000000000000000e+00  -2.8118348547189087e-02 -2.8956243569862439e-01 0.0000000000000000e+00  -1.0828199633211431e-01 -2.6451225711590998e-01 0.0000000000000000e+00  -3.9731210479872173e-02 -2.1315865425418606e-01 0.0000000000000000e+00  -8.4147737395375732e-02 -1.6774824895501561e-01 0.0000000000000000e+00  -3.1870483437266256e-02 -9.3182778567498334e-02 0.0000000000000000e+00  -5.8318090364827581e-02 -8.1931279027799061e-03 0.0000000000000000e+00  1.6392129011865736e-02 1.1637008162078809e-01 0.0000000000000000e+00  3.7120900448695195e-03 2.4579816222742387e-01 0.0000000000000000e+00  1.3650073241074556e-01 2.3503437447078834e-01 0.0000000000000000e+00  -1.3239076642762174e-01 6.6048739173114712e-01 0.0000000000000000e+00  -3.1509089889596520e-01 1.3468315126658850e+00 0.0000000000000000e+00  -2.4105686518719943e-01 8.0960715538819239e-01 0.0000000000000000e+00  3.1465740672611516e-03 -5.8569373592927809e-01 0.0000000000000000e+00  -7.3217462925887255e-03 3.0222591630895207e-01 0.0000000000000000e+00  5.8296300206501584e-03 3.4037378675102692e-01 0.0000000000000000e+00  -6.1355313444268868e-03 5.5437814271010077e-01 0.0000000000000000e+00  -1.2601588905298755e-01 -4.1939971276398691e-01 0.0000000000000000e+00  3.1600616103851710e-02 5.8537442814548801e-01 0.0000000000000000e+00  3.2382667395775951e-02 -1.7865822117879998e-01 0.0000000000000000e+00  1.2824220534490982e-01 5.1793626804280457e-01 0.0000000000000000e+00  4.7589443896727231e-03 9.9540013389803506e-02 0.0000000000000000e+00  6.4531674745366333e-05 1.8666856633706597e-01 0.0000000000000000e+00  -2.3438555846882034e-01 5.5415202277401299e-01 0.0000000000000000e+00  3.3418198770972219e-03 2.7427494146250370e-01 0.0000000000000000e+00  -2.2716733639842127e-01 6.5519755749068898e-01 0.0000000000000000e+00  -3.1670788032926419e-03 2.3003152798855742e-01 0.0000000000000000e+00  -5.2097091616569689e-03 2.8175328651246562e-01 0.0000000000000000e+00  1.2038544715290024e-01 6.0314389110535316e-01 0.0000000000000000e+00  2.5343516752707629e-01 5.1816500260473664e-01 0.0000000000000000e+00  -2.2570391702123486e-02 3.0492182424065689e-01 0.0000000000000000e+00  -7.7365244293596730e-02 5.6328964333462095e-01 0.0000000000000000e+00  -5.3204830499336804e-04 3.3403365070325430e-01 0.0000000000000000e+00  -3.8767331311575690e-03 4.9007962948824924e-01 0.0000000000000000e+00  1.6116742390316161e-02 3.2119016582920579e-01 0.0000000000000000e+00  5.7047547810721091e-04 2.2297699851408462e-01 0.0000000000000000e+00  -1.6638613324440426e-02 3.5721116891586246e-01 0.0000000000000000e+00  2.4640816599920217e-04 2.8990800624331863e-03 0.0000000000000000e+00  -1.4828383129394057e-02 2.4396984794263479e-01 0.0000000000000000e+00  -1.6247543214414942e-01 -5.7606962938778417e-01 0.0000000000000000e+00  2.2406319224375918e-02 4.0171022316973459e-01 0.0000000000000000e+00  -4.3685205700193477e-02 4.5097770224310352e-01 0.0000000000000000e+00  5.8766690791991292e-03 -1.9252293951162150e-01 0.0000000000000000e+00  2.4739046846351930e-02 1.1093043187464453e-01 0.0000000000000000e+00  1.2336457324738550e-03 3.1666199713900700e-01 0.0000000000000000e+00  -4.1828980085595879e-02 2.8534614508862471e-01 0.0000000000000000e+00  -6.5955708087982057e-03 1.9850755948318399e-01 0.0000000000000000e+00  -4.1816103846075659e-03 5.4088576255104215e-01 0.0000000000000000e+00  2.2547579743966085e-02 1.5000053526250934e-01 0.0000000000000000e+00  1.0143781204878528e-02 2.0978629347969369e-01 0.0000000000000000e+00  3.9560046749359867e-02 4.0202973688778598e-01 0.0000000000000000e+00  6.9202561088180991e-03 5.1979086006189656e-01 0.0000000000000000e+00  3.7366365621712166e-02 2.4842339994883766e-01 0.0000000000000000e+00  7.6987141664187240e-03 3.6698187403872784e-01 0.0000000000000000e+00  -3.5650003049582789e-02 -4.8881544004424438e-01 0.0000000000000000e+00  2.9074854700925151e-01 -3.8080948796761221e-01 0.0000000000000000e+00  -2.1785325626700031e-01 2.5919999412705141e-01 0.0000000000000000e+00  3.4562634593436710e-03 -5.5163322003863080e-01 0.0000000000