<?xml version="1.0"?>
<VTKFile type="UnstructuredGrid"  version="0.1"  >
<UnstructuredGrid>
<Piece  NumberOfPoints="1419" NumberOfCells="2698">
<Points>
<DataArray  type="Float64"  NumberOfComponents="3"  format="ascii">-1.670552165928859e-09 -6.259319272397083e-07 0  5.601247414957274e-09 0.4099993715039287 0  2.500000005504559 -9.144083967880948e-07 0  2.500000005504564 0.4099990855916115 0  0.6000000052549326 0.1899990522331 0  0.6000000091129483 0.2099990539870101 0  0.25 0.2 0  0.1500000018388958 0.1999993783181273 0  0.2489897948556636 0.21 0  0.2489897948556636 0.19 0  0.6000000079009913 0.1999990485105159 0  5.520550294321196e-09 0.3807136573957244 0  5.290406562424931e-09 0.3514279435927081 0  4.90245423903911e-09 0.3221422300229196 0  4.354935770884095e-09 0.2928565165310824 0  3.674624441007331e-09 0.2635708029979144 0  2.887086694854439e-09 0.2342850893435882 0  2.023077998774865e-09 0.2049993754482815 0  1.153738250949997e-09 0.1757136613327217 0  3.418493337089508e-10 0.1464279469750325 0  -3.719148932596629e-10 0.1171422324207883 0  -9.313994637920317e-10 0.08785651774361103 0  -1.345560559850137e-09 0.05857080305056153 0  -1.591997235829315e-09 0.02928508845998763 0  0.03015443585024386 -6.260513985331902e-07 0  0.06140001784030764 -6.264840093531406e-07 0  0.09377623826875447 -6.274639623858445e-07 0  0.127323992569793 -6.293999019537359e-07 0  0.1620856819966643 -6.330252610290397e-07 0  0.1981052383280265 -6.401374949366625e-07 0  0.235428178189919 -6.534174632699598e-07 0  0.274101651084595 -6.745763987570795e-07 0  0.314174545358535 -7.038481720836618e-07 0  0.3556974862306535 -7.401200657231395e-07 0  0.3987229488066373 -7.79208334902644e-07 0  0.4433053015348999 -8.168427981426443e-07 0  0.489500873725188 -8.501363886926265e-07 0  0.537368060577665 -8.763225722371565e-07 0  0.5869673356270551 -8.94242281009189e-07 0  0.638361370333934 -9.053224383611881e-07 0  0.691615117498346 -9.108382909581471e-07 0  0.746795863877279 -9.132625405434127e-07 0  0.8039733511456895 -9.142420177336117e-07 0  0.8632198189871769 -9.145596580587075e-07 0  0.9246101379052932 -9.146080142450512e-07 0  0.9882218864218473 -9.145687216572645e-07 0  1.054135450958547 -9.145209529790937e-07 0  1.122434105984391 -9.144811076616755e-07 0  1.193204182609849 -9.144521977684077e-07 0  1.26653509536389 -9.144337381472574e-07 0  1.342519521539589 -9.144228660501011e-07 0  1.421253454002242 -9.144164235366349e-07 0  1.502836394607538 -9.144126417907589e-07 0  1.58737144526169 -9.14410604377004e-07 0  1.674965424281061 -9.14409525732962e-07 0  1.765729007329675 -9.144089515613846e-07 0  1.85977691438443 -9.144086692645902e-07 0  1.957227982991524 -9.144085212318971e-07 0  2.058205335374457 -9.144084538379626e-07 0  2.162836596694492 -9.144084194429616e-07 0  2.271253962795416 -9.144084048681569e-07 0  2.383594452307982 -9.144083986306184e-07 0  2.500000005504559 0.1024990855913656 0  2.500000005504561 0.2049990855910816 0  2.500000005504564 0.3074990855913285 0  2.383594452308222 0.4099990855916133 0  2.271253962795885 0.4099990855916196 0  2.162836596695181 0.4099990855916349 0  2.058205335375384 0.4099990855916677 0  1.957227982992727 0.4099990855917344 0  1.859776914386025 0.4099990855918897 0  1.76572900733185 0.409999085592171 0  1.674965424284274 0.4099990855927692 0  1.587371445266696 0.409999085593851 0  1.502836394615817 0.4099990855959123 0  1.421253454016609 0.4099990855998973 0  1.342519521564234 0.4099990856066695 0  1.266535095406136 0.4099990856185167 0  1.193204182683577 0.409999085640842 0  1.122434106111222 0.4099990856809145 0  1.054135451167629 0.4099990857479903 0  0.9882218867702623 0.4099990858810385 0  0.9246101384673641 0.4099990861256911 0  0.8632198198859106 0.4099990865946953 0  0.8039733525534503 0.4099990875332231 0  0.7467958660437279 0.4099990894151751 0  0.6916151207395063 0.4099990930738791 0  0.6383613750674277 0.4099991001566362 0  0.586967342314755 0.4099991122148092 0  0.5373680695985994 0.4099991306259967 0  0.4895008853284188 0.4099991564167042 0  0.443305315656452 0.4099991880855143 0  0.3987229649925669 0.4099992234554039 0  0.3556975036840982 0.409999259751348 0  0.3141745631075782 0.409999293490558 0  0.2741016681067002 0.4099993214657055 0  0.2354281937777865 0.4099993415719481 0  0.1981052520850536 0.409999354792577 0  0.1620856938700029 0.4099993625505722 0  0.1273240027733948 0.4099993668764571 0  0.09377624715065823 0.409999369367983 0  0.06140002580312303 0.4099993706630214 0  0.03015444327851028 0.4099993713358696 0  0.2497468076502589 0.2050254481002335 0  0.2497468076502614 0.1949745518997913 0  0.2469965166750113 0.182931397799024 0  0.2439893637687578 0.1762312203114874 0  0.2400332050215815 0.170043856516839 0  0.2352133880173493 0.1645027663872115 0  0.2296338930390955 0.1597274780238318 0  0.2234150895475983 0.1558210072426829 0  0.216691139205409 0.1528676275809411 0  0.2096071015039869 0.150931052169849 0  0.202315804355687 0.1500530579393616 0  0.1949745469285171 0.1502525860680711 0  0.1877417062786773 0.1515253310119857 0  0.180773320475804 0.1538438348641893 0  0.1742197224080548 0.1571580787441336 0  0.1682222964669571 0.1613965624826343 0  0.162910428487842 0.1664678466348014 0  0.1583987143304916 0.172262525505072 0  0.1547844877428165 0.1786555871346788 0  0.1521457204292239 0.1855091104241532 0  0.1505393400211232 0.1926752404506117 0  0.1505393413568207 0.20732351632537 0  0.1521457231136083 0.2144896467895244 0  0.154784491748297 0.2213431708376486 0  0.1583987196791926 0.2277362336418934 0  0.1629104351606135 0.2335309141789856 0  0.1682223044923459 0.2386022007360921 0  0.1742197317609029 0.242840687709718 0  0.180773331181361 0.2461549360787956 0  0.1877417183400283 0.2484734461031697 0  0.1949745603568897 0.2497461995562015 0  0.2023158191390488 0.2499457389383689 0  0.2096071176754346 0.2490677604300877 0  0.2166911567276883 0.2471312057363545 0  0.2234151084191394 0.2441778550775082 0  0.2296339131825184 0.2402714237462676 0  0.2352134092640773 0.2354961914149549 0  0.2400332269942998 0.2299551801250749 0  0.2439893854361768 0.2237679419123412 0  0.2469965352528265 0.2170679819892996 0  0.2564581109628206 0.2099996952443813 0  0.2639264165136587 0.2099995906678509 0  0.2713947206553861 0.2099995226784455 0  0.2788630235957553 0.2099994713313488 0  0.2863313258636596 0.2099994297969549 0  0.2937996293748413 0.2099993937799074 0  0.3012679313281057 0.2099993607923725 0  0.3087362323619886 0.2099993393222463 0  0.3162045361246876 0.2099993184173514 0  0.3236728367207524 0.2099992989443454 0  0.3311411403384139 0.20999928156447 0  0.3386094405988981 0.2099992655952798 0  0.3460777434957251 0.2099992503287963 0  0.3535460441257381 0.209999233708143 0  0.3610143449681011 0.209999225004865 0  0.3684826476124058 0.2099992147631444 0  0.3759509480704123 0.209999204146239 0  0.3834192507942761 0.2099991940616951 0  0.3908875513064177 0.2099991843190308 0  0.3983558541079707 0.2099991751178863 0  0.4058241545470991 0.2099991658333306 0  0.4132924571364008 0.2099991561087444 0  0.4207607577131663 0.209999144510704 0  0.4282290587620818 0.2099991391093008 0  0.4356973613042968 0.2099991321366844 0  0.443165662220728 0.2099991244599815 0  0.4506339648988804 0.2099991167164189 0  0.4581022656998534 0.2099991091034706 0  0.4655705685116223 0.209999101616427 0  0.4730388691562552 0.2099990942794387 0  0.4805071721320449 0.2099990870585388 0  0.4879754728263373 0.2099990799543217 0  0.4954437759970324 0.2099990730155054 0  0.5029120764131394 0.2099990666240113 0  0.5103803797191153 0.2099990606019779 0  0.517848680400729 0.2099990550872083 0  0.5253169846670854 0.2099990496408932 0  0.532785285198311 0.2099990445213128 0  0.5402535893348143 0.2099990401284845 0  0.5477218900166335 0.2099990366716788 0  0.5551901947269915 0.209999032029988 0  0.5626584960496266 0.209999024893157 0  0.5701267975021189 0.2099990324259801 0  0.5775951029840148 0.2099990372683266 0  0.585063404229463 0.2099990412073862 0  0.5925317080410611 0.2099990476874211 0  0.6000000098963176 0.2049990505625925 0  0.6000000053486548 0.194999050545033 0  0.592531702694193 0.1899990443414501 0  0.5850634022989422 0.1899990368343312 0  0.5775950981229551 0.1899990314214414 0  0.57012679781605 0.1899990265047545 0  0.5626584941462629 0.1899990191930788 0  0.5551901898393032 0.1899990253263657 0  0.5477218891839012 0.1899990283707702 0  0.5402535842031456 0.1899990313758021 0  0.5327852836253018 0.1899990351620442 0  0.525316978441249 0.1899990397598671 0  0.5178486770919645 0.1899990450583096 0  0.5103803721767212 0.1899990509014791 0  0.5029120711254176 0.1899990571847146 0  0.4954437664856397 0.1899990638713113 0  0.4879754652767109 0.189999070892266 0  0.480507160739274 0.1899990782233729 0  0.4730388590561987 0.1899990857965189 0  0.4655705546922141 0.1899990936510482 0  0.4581022532598297 0.1899991016908162 0  0.4506339491993659 0.1899991098650365 0  0.4431656476683893 0.1899991181783604 0  0.4356973435400932 0.1899991265869526 0  0.4282290415761181 0.1899991346520374 0  0.420760737789497 0.1899991409446713 0  0.4132924343829466 0.1899991532505264 0  0.4058241326984175 0.1899991640904117 0  0.39835582915058 0.1899991740161091 0  0.3908875272944579 0.1899991841157097 0  0.3834192236706337 0.1899991943985221 0  0.3759509217076184 0.1899992049479753 0  0.3684826180975396 0.1899992159010004 0  0.3610143163997408 0.1899992261313525 0  0.3535460127569259 0.189999235189648 0  0.3460777087460613 0.1899992521811385 0  0.3386094070259292 0.1899992682780468 0  0.3311411029420879 0.1899992844872178 0  0.3236728016742578 0.1899993020250631 0  0.3162044977958909 0.1899993213830851 0  0.3087361966362397 0.1899993419045966 0  0.3012678926590467 0.1899993632167562 0  0.2937995896935029 0.1899993958299373 0  0.2863312884216508 0.1899994317889946 0  0.278862986083869 0.1899994732209332 0  0.2713946843034494 0.1899995242271747 0  0.2639263837574039 0.1899995923677601 0  0.2564580843164997 0.1899996967616759 0  0.2607
[...]
<PointData  Vectors="f_30-0"> 
<DataArray  type="Float64"  Name="f_30-0"  NumberOfComponents="3" format="ascii">0.0000000000000000e+00 0.0000000000000000e+00 0.0000000000000000e+00  0.0000000000000000e+00 0.0000000000000000e+00 0.0000000000000000e+00  0.0000000000000000e+00 0.0000000000000000e+00 0.0000000000000000e+00  0.0000000000000000e+00 0.0000000000000000e+00 0.0000000000000000e+00  6.5014296690590542e-03 -3.0697040549405571e-02 0.0000000000000000e+00  2.9600928424612866e-03 -2.7032037180413138e-02 0.0000000000000000e+00  0.0000000000000000e+00 0.0000000000000000e+00 0.0000000000000000e+00  0.0000000000000000e+00 0.0000000000000000e+00 0.0000000000000000e+00  0.0000000000000000e+00 0.0000000000000000e+00 0.0000000000000000e+00  0.0000000000000000e+00 0.0000000000000000e+00 0.0000000000000000e+00  1.9221107199290492e-02 -8.2424567141971064e-02 0.0000000000000000e+00  0.0000000000000000e+00 0.0000000000000000e+00 0.0000000000000000e+00  0.0000000000000000e+00 0.0000000000000000e+00 0.0000000000000000e+00  0.0000000000000000e+00 0.0000000000000000e+00 0.0000000000000000e+00  0.0000000000000000e+00 0.0000000000000000e+00 0.0000000000000000e+00  0.0000000000000000e+00 0.0000000000000000e+00 0.0000000000000000e+00  0.0000000000000000e+00 0.0000000000000000e+00 0.0000000000000000e+00  0.0000000000000000e+00 0.0000000000000000e+00 0.0000000000000000e+00  0.0000000000000000e+00 0.0000000000000000e+00 0.0000000000000000e+00  0.0000000000000000e+00 0.0000000000000000e+00 0.0000000000000000e+00  0.0000000000000000e+00 0.0000000000000000e+00 0.0000000000000000e+00  0.0000000000000000e+00 0.0000000000000000e+00 0.0000000000000000e+00  0.0000000000000000e+00 0.0000000000000000e+00 0.0000000000000000e+00  0.0000000000000000e+00 0.0000000000000000e+00 0.0000000000000000e+00  0.0000000000000000e+00 0.0000000000000000e+00 0.0000000000000000e+00  0.0000000000000000e+00 0.0000000000000000e+00 0.0000000000000000e+00  0.0000000000000000e+00 0.0000000000000000e+00 0.0000000000000000e+00  0.0000000000000000e+00 0.0000000000000000e+00 0.0000000000000000e+00  0.0000000000000000e+00 0.0000000000000000e+00 0.0000000000000000e+00  0.0000000000000000e+00 0.0000000000000000e+00 0.0000000000000000e+00  0.0000000000000000e+00 0.0000000000000000e+00 0.0000000000000000e+00  0.0000000000000000e+00 0.0000000000000000e+00 0.0000000000000000e+00  0.0000000000000000e+00 0.0000000000000000e+00 0.0000000000000000e+00  0.0000000000000000e+00 0.0000000000000000e+00 0.0000000000000000e+00  0.0000000000000000e+00 0.0000000000000000e+00 0.0000000000000000e+00  0.0000000000000000e+00 0.0000000000000000e+00 0.0000000000000000e+00  0.0000000000000000e+00 0.0000000000000000e+00 0.0000000000000000e+00  0.0000000000000000e+00 0.0000000000000000e+00 0.0000000000000000e+00  0.0000000000000000e+00 0.0000000000000000e+00 0.0000000000000000e+00  0.0000000000000000e+00 0.0000000000000000e+00 0.0000000000000000e+00  0.0000000000000000e+00 0.0000000000000000e+00 0.0000000000000000e+00  0.0000000000000000e+00 0.0000000000000000e+00 0.0000000000000000e+00  0.0000000000000000e+00 0.0000000000000000e+00 0.0000000000000000e+00  0.0000000000000000e+00 0.0000000000000000e+00 0.0000000000000000e+00  0.0000000000000000e+00 0.0000000000000000e+00 0.0000000000000000e+00  0.0000000000000000e+00 0.0000000000000000e+00 0.0000000000000000e+00  0.0000000000000000e+00 0.0000000000000000e+00 0.0000000000000000e+00  0.0000000000000000e+00 0.0000000000000000e+00 0.0000000000000000e+00  0.0000000000000000e+00 0.0000000000000000e+00 0.0000000000000000e+00  0.0000000000000000e+00 0.0000000000000000e+00 0.0000000000000000e+00  0.0000000000000000e+00 0.0000000000000000e+00 0.0000000000000000e+00  0.0000000000000000e+00 0.0000000000000000e+00 0.0000000000000000e+00  0.0000000000000000e+00 0.0000000000000000e+00 0.0000000000000000e+00  0.0000000000000000e+00 0.0000000000000000e+00 0.0000000000000000e+00  0.0000000000000000e+00 0.0000000000000000e+00 0.0000000000000000e+00  0.0000000000000000e+00 0.0000000000000000e+00 0.0000000000000000e+00  0.0000000000000000e+00 0.0000000000000000e+00 0.0000000000000000e+00  0.0000000000000000e+00 0.0000000000000000e+00 0.0000000000000000e+00  0.0000000000000000e+00 0.0000000000000000e+00 0.0000000000000000e+00  0.0000000000000000e+00 0.0000000000000000e+00 0.0000000000000000e+00  0.0000000000000000e+00 0.0000000000000000e+00 0.0000000000000000e+00  0.0000000000000000e+00 0.0000000000000000e+00 0.0000000000000000e+00  3.3326665448369826e-09 1.2359530290321074e-09 0.0000000000000000e+00  -1.3626599548040443e-10 1.5614810021873523e-09 0.0000000000000000e+00  -3.7624538369912655e-09 1.4432038735063187e-09 0.0000000000000000e+00  0.0000000000000000e+00 0.0000000000000000e+00 0.0000000000000000e+00  0.0000000000000000e+00 0.0000000000000000e+00 0.0000000000000000e+00  0.0000000000000000e+00 0.0000000000000000e+00 0.0000000000000000e+00  0.0000000000000000e+00 0.0000000000000000e+00 0.0000000000000000e+00  0.0000000000000000e+00 0.0000000000000000e+00 0.0000000000000000e+00  0.0000000000000000e+00 0.0000000000000000e+00 0.0000000000000000e+00  0.0000000000000000e+00 0.0000000000000000e+00 0.0000000000000000e+00  0.0000000000000000e+00 0.0000000000000000e+00 0.0000000000000000e+00  0.0000000000000000e+00 0.0000000000000000e+00 0.0000000000000000e+00  0.0000000000000000e+00 0.0000000000000000e+00 0.0000000000000000e+00  0.0000000000000000e+00 0.0000000000000000e+00 0.0000000000000000e+00  0.0000000000000000e+00 0.0000000000000000e+00 0.0000000000000000e+00  0.0000000000000000e+00 0.0000000000000000e+00 0.0000000000000000e+00  0.0000000000000000e+00 0.0000000000000000e+00 0.0000000000000000e+00  0.0000000000000000e+00 0.0000000000000000e+00 0.0000000000000000e+00  0.0000000000000000e+00 0.0000000000000000e+00 0.0000000000000000e+00  0.0000000000000000e+00 0.0000000000000000e+00 0.0000000000000000e+00  0.0000000000000000e+00 0.0000000000000000e+00 0.0000000000000000e+00  0.0000000000000000e+00 0.0000000000000000e+00 0.0000000000000000e+00  0.0000000000000000e+00 0.0000000000000000e+00 0.0000000000000000e+00  0.0000000000000000e+00 0.0000000000000000e+00 0.0000000000000000e+00  0.0000000000000000e+00 0.0000000000000000e+00 0.0000000000000000e+00  0.0000000000000000e+00 0.0000000000000000e+00 0.0000000000000000e+00  0.0000000000000000e+00 0.0000000000000000e+00 0.0000000000000000e+00  0.0000000000000000e+00 0.0000000000000000e+00 0.0000000000000000e+00  0.0000000000000000e+00 0.0000000000000000e+00 0.0000000000000000e+00  0.0000000000000000e+00 0.0000000000000000e+00 0.0000000000000000e+00  0.0000000000000000e+00 0.0000000000000000e+00 0.0000000000000000e+00  0.0000000000000000e+00 0.0000000000000000e+00 0.0000000000000000e+00  0.0000000000000000e+00 0.0000000000000000e+00 0.0000000000000000e+00  0.0000000000000000e+00 0.0000000000000000e+00 0.0000000000000000e+00  0.0000000000000000e+00 0.0000000000000000e+00 0.0000000000000000e+00  0.0000000000000000e+00 0.0000000000000000e+00 0.0000000000000000e+00  0.0000000000000000e+00 0.0000000000000000e+00 0.0000000000000000e+00  0.0000000000000000e+00 0.0000000000000000e+00 0.0000000000000000e+00  0.0000000000000000e+00 0.0000000000000000e+00 0.0000000000000000e+00  0.0000000000000000e+00 0.0000000000000000e+00 0.0000000000000000e+00  0.0000000000000000e+00 0.0000000000000000e+00 0.0000000000000000e+00  0.0000000000000000e+00 0.0000000000000000e+00 0.0000000000000000e+00  0.0000000000000000e+00 0.0000000000000000e+00 0.0000000000000000e+00  0.0000000000000000e+00 0.0000000000000000e+00 0.0000000000000000e+00  0.0000000000000000e+00 0.0000000000000000e+00 0.0000000000000000e+00  0.0000000000000000e+00 0.0000000000000000e+00 0.0000000000000000e+00  0.0000000000000000e+00 0.0000000000000000e+00 0.0000000000000000e+00  0.0000000000000000e+00 0.0000000000000000e+00 0.0000000000000000e+00  0.0000000000000000e+00 0.0000000000000000e+00 0.0000000000000000e+00  0.0000000000000000e+00 0.0000000000000000e+00 0.0000000000000000e+00  0.0000000000000000e+00 0.0000000000000000e+00 0.0000000000000000e+00  0.0000000000000000e+00 0.0000000000000000e+00 0.0000000000000000e+00  0.0000000000000000e+00 0.0000000000000000e+00 0.0000000000000000e+00  0.0000000000000000e+00 0.0000000000000000e+00 0.0000000000000000e+00  0.0000000000000000e+00 0.0000000000000000e+00 0.0000000000000000e+00  0.0000000000000000e+00 0.0000000000000000e+00 0.0000000000000000e+00  0.0000000000000000e+00 0.0000000000000000e+00 0.0000000000000000e+00  0.0000000000000000e+00 0.0000000000000000e+00 0.0000000000000000e+00  0.0000000000000000e+00 0.0000000000000000e+00 0.0000000000000000e+00  0.0000000000000000e+00 0.0000000000000000e+00 0.0000000000000000e+00  0.0000000000000000e+00 0.0000000000000000e+00 0.0000000000000000e+00  0.0000000000000000e+00 0.0000000000000000e+00 0.0000000000000000e+00  0.0000000000000000e+00 0.0000000000000000e+00 0.0000000000000000e+00  0.0000000000000000e+00 0.0000000000000000e+00 0.0000000000000000e+00  0.0000000000000000e+00 0.0000000000000000e+00 0.0000000000000000e+00  0.0000000000000000e+00 0.0000000000000000e+00 0.0000000000000000e+00  0.0000000000000000e+00 0.0000000000000000e+00 0.0000000000000000e+00  0.0000000000000000e+00 0.0000000000000000e+00 0.0000000000000000e+00  0.0000000000000000e+00 0.0000000000000000e+00 0.0000000000000000e+00  0.0000000000000000e+00 0.0000000000000000e+00 0.0000000000000000e+00  0.0000000000000000e+00 0.0000000000000000e+00 0.0000000000000000e+00  0.0000000000000000e+00 0.0000000000000000e+00 0.0000000000000000e+00  0.0000000000000000e+00 0.0000000000000000e+00 0.0000000000000000e+00  0.0000000000000000e+00 0.0000000000000000e+00 0.0000000000000000e+00  0.0000000000000000e+00 0.0000000000000000e+00 0.0000000000000000e+00  0.0000000000000000e+00 0.0000000000000000e+00 0.0000000000000000e+00  0.0000000000000000e+00 0.0000000000000000e+00 0.0000000000000000e+00  0.0000000000000000e+00 0.0000000000000000e+00 0.0000000000000000e+00  0.0000000000000000e+00 0.0000000000000000e+00 0.0000000000000000e+00  0.0000000000000000e+00 0.0000000000000000e+00 0.0000000000000000e+00  0.0000000000000000e+00 0.0000000000000000e+00 0.0000000000000000e+00  5.2777664657538331e-02 1.3123552374075281e-01 0.0000000000000000e+00  4.1209420023956868e-02 8.0634299756447758e-02 0.0000000000000000e+00  3.0287271161130752e-02 2.6001589736558858e-02 0.0000000000000000e+00  2.1989319019153422e-02 -2.7655260794078002e-02 0.0000000000000000e+00  1.3318898023826865e-02 -4.6804504391701113e-02 0.0000000000000000e+00  1.9553919557966298e-02 -8.3906961961249263e-02 0.0000000000000000e+00  1.7266483099802082e-02 -9.6178720913190088e-02 0.0000000000000000e+00  -3.3459644308375109e-03 -1.0322499901824701e-01 0.0000000000000000e+00  2.2790305235599766e-02 -9.5662657183770441e-02 0.0000000000000000e+00  -3.7493488947298649e-03 -1.0082507257384148e-01 0.0000000000000000e+00  2.0851899499722316e-02 -9.9939062954696178e-02 0.0000000000000000e+00  -3.7832707142061825e-03 -9.8536773205523787e-02 0.0000000000000000e+00  2.1533650733652002e-02 -1.0154259712929900e-01 0.0000000000000000e+00  8.4315156991324875e-04 -9.4628977460193400e-02 0.0000000000000000e+00  -1.6948050486900170e-03 -9.0127981126985515e-02 0.0000000000000000e+00  7.4447510558171446e-03 -8.0280906299681126e-02 0.0000000000000000e+00  -2.9952530502039810e-03 -8.3308710749554427e-02 0.0000000000000000e+00  8.0353264040124283e-03 -7.8032272120140370e-02 0.0000000000000000e+00  -4.8610658995194931e-03 -7.8591697250444681e-02 0.0000000000000000e+00  1.0035101835637054e-02 -7.7869690582883150e-02 0.0000000000000000e+00  -7.7817318954957219e-03 -7.7621892187795902e-02 0.0000000000000000e+00  1.4065799150810588e-02 -7.9649622208430831e-02 0.0000000000000000e+00  -4.2539613579857119e-03 -7.7977941236890683e-02 0.0000000000000000e+00  -7.6635360385705672e-03 -8.1207276731854225e-02 0.0000000000000000e+00  3.0108897328105272e-03 -8.4110708465569201e-02 0.0000000000000000e+00  -5.3315662815500370e-03 -8.5973463460671556e-02 0.0000000000000000e+00  2.9827661924162908e-03 -9.0429027884991645e-02 0.0000000000000000e+00  -1.0257558355061461e-02 -9.6097737076702106e-02 0.0000000000000000e+00  8.9176045304677314e-03 -9.8459908664151802e-02 0.0000000000000000e+00  -1.5202094841580572e-02 -1.0179694513368469e-01 0.0000000000000000e+00  1.0713012621807358e-02 -1.0834918863966646e-01 0.0000000000000000e+00  -1.4276038438255818e-02 -1.1008370967752294e-01 0.0000000000000000e+00  7.8078674239947720e-03 -1.2633016037063116e-01 0.0000000000000000e+00  -1.5034939276165601e-02 -1.2973538070234678e-01 0.0000000000000000e+00  8.7847209269398645e-03 -1.2966381475523170e-01 0.0000000000000000e+00  -1.9124404770692337e-02 -1.2808826880721022e-01 0.0000000000000000e+00  1.2653015254135395e-02 -1.3721382541026828e-01 0.0000000000000000e+00  -2.3148949970394846e-02 -1.5001041701979140e-01 0.0000000000000000e+00  1.6154863411842357e-02 -1.5963798907559029e-01 0.0000000000000000e+00  -2.0497614864164206e-02 -1.5015703888868812e-01 0.0000000000000000e+00  1.5426007617495496e-02 -1.6071024279726723e-01 0.0000000000000000e+00  1.2433812481813904e-03 -1.5519972704351842e-01 0.0000000000000000e+00  -2.0857959435951909e-02 -1.4966910908068509e-01 0.0000000000000000e+00  1.9069106416820698e-02 -1.2914648585225758e-01 0.0000000000000000e+00  -8.0079533662074879e-03 -1.3941915481187062e-01 0.0000000000000000e+00  3.6983423902235704e-02 -1.0578861044806114e-01 0.0000000000000000e+00  3.8188766333766784e-02 -7.6877105211296953e-02 0.0000000000000000e+00  -1.8991995164542811e-02 -6.4888048448434543e-02 0.0000000000000000e+00  -6.2421537372186536e-03 -9.0366853490009197e-02 0.0000000000000000e+00  2.5270927755998963e-02 -1.2406526828123385e-01 0.0000000000000000e+00  -4.9987671924580949e-03 -1.3134286912509369e-01 0.0000000000000000e+00  2.6247495711113133e-02 -1.5301724339459721e-01 0.0000000000000000e+00  7.7846909686006367e-03 -1.4439196362446538e-01 0.0000000000000000e+00  -1.7159877793521783e-02 -1.5435111695953271e-01 0.0000000000000000e+00  2.3045352206945931e-02 -1.4051149893492548e-01 0.0000000000000000e+00  -1.7388259579253683e-02 -1.4127222010103005e-01 0.0000000000000000e+00  2.0157397712093936e-02 -1.3909692231277715e-01 0.0000000000000000e+00  -1.6159928432671902e-02 -1.3716135668051738e-01 0.0000000000000000e+00  1.6277414427901399e-02 -1.2846514127089192e-01 0.0000000000000000e+00  -1.5653957948981528e-02 -1.2266199364847313e-01 0.0000000000000000e+00  1.4894076555900049e-02 -1.1245643712784478e-01 0.0000000000000000e+00  -1.5764426299720725e-02 -1.0874620064225905e-01 0.0000000000000000e+00  1.2048550515726062e-02 -1.0451912299994864e-01 0.0000000000000000e+00  -1.4195242658323186e-02 -1.0226523941387344e-01 0.0000000000000000e+00  1.0291802544518043e-02 -9.6672970434444380e-02 0.0000000000000000e+00  -1.3502393416676061e-02 -9.2243943448686666e-02 0.0000000000000000e+00  9.4671892590711213e-03 -8.5382093373353396e-02 0.0000000000000000e+00  -1.2825386994784315e-02 -8.3216324694370319e-02 0.0000000000000000e+00  8.7256706484678155e-03 -8.1735066603234138e-02 0.0000000000000000e+00  -1.1471653692571986e-02 -7.9356721877633249e-02 0.0000000000000000e+00  8.9802700414317645e-03 -8.1456796444806717e-02 0.0000000000000000e+00  -4.1501541049497378e-03 -7.8173002776921963e-02 0.0000000000000000e+00  -1.0452183223527265e-02 -7.9419135561971790e-02 0.0000000000000000e+00  2.1028022916049689e-03 -7.5104644401778289e-02 0.0000000000000000e+00  -9.4777627192119060e-03 -8.0253828741842309e-02 0.0000000000000000e+00  3.3001298560276712e-03 -8.4044104717204415e-02 0.0000000000000000e+00  -8.9014068388827000e-03 -8.5696870358001165e-02 0.0000000000000000e+00  3.4757729822304426e-03 -8.7125664293233554e-02 0.0000000000000000e+00  -8.3506137486608397e-03 -8.4436914929107182e-02 0.0000000000000000e+00  4.3556413814666269e-03 -9.0277846476297968e-02 0.0000000000000000e+00  1.2021679760229419e-04 -9.4070289158810022e-02 0.0000000000000000e+00  -2.1056894713189566e-02 -1.0220463423965533e-01 0.0000000000000000e+00  5.5894594176494313e-03 -9.9794430359360142e-02 0.0000000000000000e+00  -2.2404473700982974e-02 -1.0318178537860997e-01 0.0000000000000000e+00  5.6369950680442565e-03 -1.0378111299392913e-01 0.0000000000000000e+00  -2.4271795254856305e-02 -1.0041649464784225e-01 0.0000000000000000e+00  4.5133079249960219e-03 -1.0204196417184050e-01 0.0000000000000000e+00  -1.7900989057974007e-02 -9.3709329846154807e-02 0.0000000000000000e+00  -2.2990082431054996e-02 -8.4162894902689619e-02 0.0000000000000000e+00  -1.6187529015958890e-02 -4.9374277746365561e-02 0.0000000000000000e+00  -2.4687554828187824e-02 -2.9517385707110454e-02 0.0000000000000000e+00  -3.1225585852613928e-02 2.3261009524900712e-02 0.0000000000000000e+00  -4.2757618712101091e-02 7.9584061949829449e-02 0.0000000000000000e+00  -5.5685542627384434e-02 1.3263083034201470e-01 0.0000000000000000e+00  -1.2396823798374083e-03 -4.6205932939585040e-02 0.0000000000000000e+00  -3.1579838832196967e-03 7.7504850573813081e-02 0.0000000000000000e+00  -1.5936362841653512e-03 1.0776538649997915e-01 0.0000000000000000e+00  4.8070119073237959e-03 1.2124230577749504e-01 0.0000000000000000e+00  1.3212355788731457e-04 2.1752336656389597e-03 0.0000000000000000e+00  2.5805483601037461e-04 1.1639548304639813e-01 0.0000000000000000e+00  8.1016572107676108e-04 4.7099671071853720e-02 0.0000000000000000e+00  2.1105673855246988e-04 1.0712871744746226e-01 0.0000000000000000e+00  2.6851132215559960e-03 8.0867625802395371e-02 0.0000000000000000e+00  4.3044903598024429e-04 8.1357245184036614e-02 0.0000000000000000e+00  -9.8438353170758174e-04 9.8155677525432000e-02 0.0000000000000000e+00  2.1926323303239539e-03 6.9897584720094663e-02 0.0000000000000000e+00  -1.3944582785235636e-04 8.0721379525982004e-02 0.0000000000000000e+00  -2.1296982207157575e-03 7.5862432915412975e-02 0.0000000000000000e+00  -4.2287674468983448e-05 6.6398930245468030e-02 0.0000000000000000e+00  -4.5708490893897239e-04 7.4116287750701296e-02 0.0000000000000000e+00  3.6185210927990817e-04 8.9223234383184274e-02 0.0000000000000000e+00  -1.1099640121484244e-03 6.4139487081571994e-02 0.0000000000000000e+00  1.5665974621806094e-04 6.8177190858501158e-02 0.0000000000000000e+00  -5.6191725921283609e-04 6.1337252803173217e-02 0.0000000000000000e+00  -1.8949963735670572e-03 6.4118423698106761e-02 0.0000000000000000e+00  8.5616128125717470e-04 5.0878145065742744e-02 0.0000000000000000e+00  -3.0981098610627394e-04 5.9451143985983022e-02 0.0000000000000000e+00  -8.9492096093314838e-04 1.0350573807827648e-01 0.0000000000000000e+00  5.8894774798658514e-04 6.0671732013313745e-02 0.0000000000000000e+00  8.1981149759301278e-03 8.1944115075368140e-02 0.0000000000000000e+00  -2.0973305046386691e-02 -2.6802555149099905e-02 0.0000000000000000e+00  -3.4250908026353644e-03 7.6761409692495966e-02 0.0000000000000000e+00  -5.1973463957626651e-03 8.4883329942358227e-02 0.0000000000000000e+00  1.3226850524558834e-02 3.1849455858211494e-02 0.0000000000000000e+00  -4.2924519847184033e-03 5.7617090018513832e-02 0.0000000000000000e+00  -2.6154645341810415e-03 5.8057254204244860e-02 0.0000000000000000e+00  -2.0352253924601936e-03 6.9978261566832387e-02 0.0000000000000000e+00  -3.5843457309842138e-03 4.7512974136836847e-02 0.0000000000000000e+00  -8.4906830038489537e-04 5.2610697759358706e-02 0.0000000000000000e+00  -1.6292900581103167e-03 5.4081407766173629e-02 0.0000000000000000e+00  -1.1099590041375757e-03 4.6505512456175575e-02 0.0000000000000000e+00  -1.1268077241583137e-03 5.0173085920897753e-02 0.0000000000000000e+00  -2.4966414520133239e-03 6.6589519006791636e-02 0.0000000000000000e+00  6.9896432009311634e-04 4.8668645427327371e-02 0.0000000000000000e+00  4.1494518839560668e-04 4.4670326117807378e-02 0.0000000000000000e+00  -1.1727456830673517e-02 -6.5979419419936833e-02 0.0000000000000000e+00  9.7529295026122509e-03 -6.3985810764605050e-02 0.0000000000000000e+00  -3.3346955119742901e-02 5.3835067753569235e-02 0.0000000000000000e+00  1.9904893866601527e-02 -2.7343399412936363e-02 0