<?xml version="1.0"?>
<VTKFile type="UnstructuredGrid"  version="0.1"  >
<UnstructuredGrid>
<Piece  NumberOfPoints="1419" NumberOfCells="2698">
<Points>
<DataArray  type="Float64"  NumberOfComponents="3"  format="ascii">-1.401359968336364e-09 -3.270563952357966e-07 0  2.159933123488424e-09 0.4099996716844381 0  2.500000001030005 -4.786778029779647e-07 0  2.500000001030007 0.4099995213222016 0  0.6000000008497891 0.1899995019705101 0  0.6000000018081633 0.2099995032404009 0  0.25 0.2 0  0.150000000326354 0.1999996751477138 0  0.2489897948556636 0.21 0  0.2489897948556636 0.19 0  0.6000000015523935 0.1999994996556634 0  2.120702877251313e-09 0.3807139574891 0  2.008768411315381e-09 0.3514282434490179 0  1.819864980828693e-09 0.3221425295272644 0  1.552794570487678e-09 0.2928568156442508 0  1.22045431887746e-09 0.2635711017390595 0  8.352400416307567e-10 0.2342853877709752 0  4.120476535926995e-10 0.2049996736788513 0  -1.412851924239056e-11 0.1757139594737462 0  -4.124713099223296e-10 0.1464282451450182 0  -7.629294779490351e-10 0.1171425307163168 0  -1.037841028124054e-09 0.08785681622576375 0  -1.241473600576948e-09 0.05857110172819183 0  -1.362706149946913e-09 0.02928538728436836 0  0.03015443616187462 -3.271182401976158e-07 0  0.06140001828973105 -3.273419489298097e-07 0  0.09377623896010887 -3.278476581609001e-07 0  0.127323993606127 -3.288447436217836e-07 0  0.1620856834646984 -3.307087873370215e-07 0  0.1981052402777798 -3.343604345089201e-07 0  0.2354281805863483 -3.411732502986002e-07 0  0.2741016537879132 -3.520290048892103e-07 0  0.3141745481541219 -3.67063201556228e-07 0  0.3556974887851315 -3.857620135759735e-07 0  0.3987229508174426 -4.060344446303527e-07 0  0.4433053027276436 -4.257580902441201e-07 0  0.4895008739178388 -4.434403688756012e-07 0  0.5373680597118005 -4.575703846724615e-07 0  0.5869673337714205 -4.674017722426812e-07 0  0.6383613676434817 -4.735586164228933e-07 0  0.6916151141926066 -4.766554469591863e-07 0  0.7467958601528036 -4.780241654057392e-07 0  0.803973347141456 -4.785794804964811e-07 0  0.8632198148042844 -4.787605124131348e-07 0  0.9246101336084779 -4.787888950102347e-07 0  0.9882218820565328 -4.787673406523987e-07 0  1.054135446548684 -4.787407742855672e-07 0  1.122434101548652 -4.787185094530628e-07 0  1.193204178157552 -4.787023347579112e-07 0  1.266535090901816 -4.786919995876743e-07 0  1.342519517072059 -4.786859097895398e-07 0  1.421253449531551 -4.78682300497182e-07 0  1.502836390135017 -4.786801816203975e-07 0  1.58737144078819 -4.786790400054839e-07 0  1.674965419807045 -4.786784355911308e-07 0  1.765729002855385 -4.786781138514216e-07 0  1.859776909910006 -4.786779556636631e-07 0  1.95722797851703 -4.786778727117647e-07 0  2.058205330899931 -4.786778349466636e-07 0  2.162836592219949 -4.786778156729438e-07 0  2.271253958320866 -4.786778075057438e-07 0  2.383594447833429 -4.786778040104493e-07 0  2.500000001030005 0.1024995213219589 0  2.500000001030005 0.2049995213216736 0  2.500000001030007 0.3074995213219193 0  2.383594447833663 0.4099995213222027 0  2.271253958321324 0.4099995213222062 0  2.162836592220612 0.4099995213222148 0  2.058205330900799 0.4099995213222332 0  1.95722797851811 0.4099995213222706 0  1.859776909911335 0.4099995213223575 0  1.765729002857026 0.4099995213225152 0  1.674965419809166 0.4099995213228504 0  1.587371440791075 0.4099995213234566 0  1.502836390139224 0.4099995213246118 0  1.421253449538151 0.4099995213268451 0  1.34251951708265 0.4099995213306409 0  1.266535090919196 0.4099995213372821 0  1.193204178187026 0.4099995213498014 0  1.122434101598491 0.409999521372282 0  1.054135446630042 0.4099995214099305 0  0.9882218821912506 0.4099995214846722 0  0.9246101338250029 0.4099995216222041 0  0.8632198151500124 0.4099995218860055 0  0.8039733476839894 0.4099995224139301 0  0.746795860992947 0.4099995234717875 0  0.6916151154671729 0.4099995255236885 0  0.6383613695551265 0.4099995294748021 0  0.5869673365754414 0.4099995361426039 0  0.5373680636531681 0.4099995462077958 0  0.489500879179715 0.4099995600988179 0  0.4433053093070106 0.4099995769106692 0  0.3987229584952227 0.409999595454684 0  0.3556974971625519 0.4099996142981716 0  0.3141745567389866 0.4099996316957671 0  0.2741016620630063 0.4099996460669083 0  0.2354281881873204 0.4099996563748469 0  0.1981052469986194 0.4099996631447527 0  0.162085689271763 0.4099996671134912 0  0.1273239985997186 0.4099996693240007 0  0.0937762433085477 0.4099996705958441 0  0.06140002218891126 0.40999967125609 0  0.03015443979972034 0.4099996715988741 0  0.2497468076502589 0.2050254481002335 0  0.2497468076502614 0.1949745518997913 0  0.2469965208014618 0.1829315439926534 0  0.2439893684055146 0.176231418394788 0  0.2400332095635512 0.1700440848982255 0  0.2352133922569537 0.1645030138220832 0  0.2296338969133147 0.1597277389751122 0  0.2234150930343966 0.1558212778501647 0  0.2166911423027876 0.1528679051805688 0  0.2096071042232844 0.150931334799008 0  0.2023158066923956 0.1500533444418955 0  0.194974548898309 0.1502528753383745 0  0.1877417078820014 0.1515256223782761 0  0.1807733217248103 0.1538441277434075 0  0.174219723300967 0.1571583727707249 0  0.1682222970144418 0.161396857339401 0  0.1629104286855744 0.1664681421271131 0  0.1583987141869332 0.1722628214603474 0  0.1547844872536421 0.1786558834397604 0  0.1521457196014454 0.185509406977691 0  0.1505393388473654 0.1926755371797184 0  0.1505393395032387 0.2073238131873335 0  0.1521457209196079 0.2144899436135568 0  0.1547844892206648 0.2213434675401491 0  0.1583987168138612 0.2277365301213585 0  0.1629104319632637 0.2335312103085708 0  0.1682223009573345 0.2386024963284772 0  0.1742197278971996 0.2428409825547357 0  0.1807733269873702 0.2461552298821784 0  0.1877417138135136 0.2484737384101034 0  0.1949745555053111 0.2497464898104532 0  0.2023158139701925 0.2499460264743504 0  0.2096071121897717 0.2490680441765483 0  0.2166911509415577 0.2471314844179417 0  0.223415102346809 0.2441781266283876 0  0.229633906861679 0.2402716857616256 0  0.2352134027582692 0.2354964397366965 0  0.2400332204272322 0.2299554093157238 0  0.2439893791104976 0.2237681409074309 0  0.2469965299510122 0.2170681288647449 0  0.2564581036349582 0.2099998380340774 0  0.2639264076345764 0.2099997820150339 0  0.2713947105644672 0.2099997461819439 0  0.2788630137135608 0.2099997199106133 0  0.2863313157898894 0.2099996990703505 0  0.2937996188384414 0.209999681415016 0  0.3012679207108803 0.2099996652665651 0  0.3087362220932551 0.2099996550210162 0  0.3162045248960308 0.2099996449660579 0  0.3236728261861718 0.2099996355990009 0  0.3311411289375145 0.2099996272191059 0  0.3386094301568591 0.2099996194978457 0  0.3460777325895468 0.2099996121123098 0  0.3535460340293559 0.209999604153512 0  0.3610143356141027 0.2099995994437933 0  0.3684826380092021 0.2099995940809568 0  0.3759509394458649 0.2099995886204692 0  0.3834192419016664 0.2099995833939841 0  0.3908875433662776 0.2099995783511025 0  0.3983558458667071 0.2099995735677859 0  0.4058241472992931 0.2099995687658577 0  0.4132924496993824 0.2099995637985368 0  0.4207607512036982 0.2099995580139733 0  0.4282290528904893 0.209999554867747 0  0.4356973552592253 0.209999551029172 0  0.4431656568793393 0.2099995468916332 0  0.4506339593005618 0.2099995427281482 0  0.4581022608412673 0.2099995386164389 0  0.4655705632990672 0.2099995345520132 0  0.4730388647457252 0.2099995305423033 0  0.4805071672552663 0.2099995265760762 0  0.4879754686900266 0.2099995226234069 0  0.4954437712414902 0.2099995187603648 0  0.5029120724754731 0.2099995150662819 0  0.5103803750636968 0.2099995114637315 0  0.5178486763764835 0.2099995080634618 0  0.5253169794150266 0.2099995047006795 0  0.5327852805415394 0.2099995014735031 0  0.5402535834376504 0.2099994985495095 0  0.5477218845214642 0.2099994959930087 0  0.5551901876807898 0.2099994927936529 0  0.5626584889805822 0.2099994881948138 0  0.5701267905441308 0.2099994914908284 0  0.5775950946112074 0.2099994934912282 0  0.5850633961450142 0.209999495606417 0  0.5925316995981229 0.2099994995423568 0  0.6000000024449087 0.2049995010944571 0  0.6000000004558033 0.194999500962554 0  0.5925316988578577 0.1899994969864017 0  0.5850633979313473 0.1899994926054741 0  0.5775950946401966 0.1899994899409745 0  0.5701267937659805 0.1899994879236341 0  0.5626584907819808 0.1899994846784685 0  0.5551901874330945 0.1899994888853605 0  0.5477218860576986 0.1899994913474674 0  0.5402535823943116 0.189999493673717 0  0.5327852810159424 0.1899994963544947 0  0.5253169773224613 0.1899994993860761 0  0.5178486755350105 0.1899995027322496 0  0.5103803720002263 0.1899995063042252 0  0.502912070316832 0.1899995100592766 0  0.4954437669387943 0.1899995139234593 0  0.4879754651655274 0.1899995178829424 0  0.4805071618475035 0.1899995219430938 0  0.4730388598535387 0.1899995260999099 0  0.4655705566233801 0.1899995303684393 0  0.4581022547380845 0.1899995347141333 0  0.4506339516434231 0.1899995391047119 0  0.4431656497103417 0.189999543552478 0  0.4356973465924751 0.1899995480463644 0  0.4282290444618769 0.1899995523980211 0  0.420760741502227 0.1899995559587316 0  0.4132924387125914 0.1899995621163539 0  0.4058241366983322 0.1899995676087592 0  0.3983558338464525 0.1899995727200961 0  0.3908875317659352 0.1899995779246429 0  0.3834192288871526 0.1899995832334433 0  0.3759509267576504 0.1899995886808792 0  0.3684826238848634 0.1899995943297565 0  0.361014321856873 0.1899995996907974 0  0.3535460189666557 0.1899996045333457 0  0.3460777159268891 0.1899996127092168 0  0.3386094139080503 0.1899996204957483 0  0.3311411108121717 0.1899996283559421 0  0.3236728090101053 0.1899996368313092 0  0.3162045059360837 0.1899996461766293 0  0.3087362041792314 0.1899996560429361 0  0.3012679009767261 0.1899996661998757 0  0.293799598265161 0.1899996822420117 0  0.2863312967682416 0.1899996999739968 0  0.2788629943136429 0.1899997207655136 0  0.2713946928906969 0.1899997467952935 0  0.2639263913123541 0.1899997826039262 0  0.256458090725908 
[...]
<PointData  Vectors="f_30-0"> 
<DataArray  type="Float64"  Name="f_30-0"  NumberOfComponents="3" format="ascii">0.0000000000000000e+00 0.0000000000000000e+00 0.0000000000000000e+00  0.0000000000000000e+00 0.0000000000000000e+00 0.0000000000000000e+00  0.0000000000000000e+00 0.0000000000000000e+00 0.0000000000000000e+00  0.0000000000000000e+00 0.0000000000000000e+00 0.0000000000000000e+00  7.0579055464290285e-03 -1.6644080285065272e-02 0.0000000000000000e+00  -4.3748196602020600e-03 -1.4409419200649467e-02 0.0000000000000000e+00  0.0000000000000000e+00 0.0000000000000000e+00 0.0000000000000000e+00  0.0000000000000000e+00 0.0000000000000000e+00 0.0000000000000000e+00  0.0000000000000000e+00 0.0000000000000000e+00 0.0000000000000000e+00  0.0000000000000000e+00 0.0000000000000000e+00 0.0000000000000000e+00  7.9054626629186213e-03 -5.1924458448694907e-02 0.0000000000000000e+00  0.0000000000000000e+00 0.0000000000000000e+00 0.0000000000000000e+00  0.0000000000000000e+00 0.0000000000000000e+00 0.0000000000000000e+00  0.0000000000000000e+00 0.0000000000000000e+00 0.0000000000000000e+00  0.0000000000000000e+00 0.0000000000000000e+00 0.0000000000000000e+00  0.0000000000000000e+00 0.0000000000000000e+00 0.0000000000000000e+00  0.0000000000000000e+00 0.0000000000000000e+00 0.0000000000000000e+00  0.0000000000000000e+00 0.0000000000000000e+00 0.0000000000000000e+00  0.0000000000000000e+00 0.0000000000000000e+00 0.0000000000000000e+00  0.0000000000000000e+00 0.0000000000000000e+00 0.0000000000000000e+00  0.0000000000000000e+00 0.0000000000000000e+00 0.0000000000000000e+00  0.0000000000000000e+00 0.0000000000000000e+00 0.0000000000000000e+00  0.0000000000000000e+00 0.0000000000000000e+00 0.0000000000000000e+00  0.0000000000000000e+00 0.0000000000000000e+00 0.0000000000000000e+00  0.0000000000000000e+00 0.0000000000000000e+00 0.0000000000000000e+00  0.0000000000000000e+00 0.0000000000000000e+00 0.0000000000000000e+00  0.0000000000000000e+00 0.0000000000000000e+00 0.0000000000000000e+00  0.0000000000000000e+00 0.0000000000000000e+00 0.0000000000000000e+00  0.0000000000000000e+00 0.0000000000000000e+00 0.0000000000000000e+00  0.0000000000000000e+00 0.0000000000000000e+00 0.0000000000000000e+00  0.0000000000000000e+00 0.0000000000000000e+00 0.0000000000000000e+00  0.0000000000000000e+00 0.0000000000000000e+00 0.0000000000000000e+00  0.0000000000000000e+00 0.0000000000000000e+00 0.0000000000000000e+00  0.0000000000000000e+00 0.0000000000000000e+00 0.0000000000000000e+00  0.0000000000000000e+00 0.0000000000000000e+00 0.0000000000000000e+00  0.0000000000000000e+00 0.0000000000000000e+00 0.0000000000000000e+00  0.0000000000000000e+00 0.0000000000000000e+00 0.0000000000000000e+00  0.0000000000000000e+00 0.0000000000000000e+00 0.0000000000000000e+00  0.0000000000000000e+00 0.0000000000000000e+00 0.0000000000000000e+00  0.0000000000000000e+00 0.0000000000000000e+00 0.0000000000000000e+00  0.0000000000000000e+00 0.0000000000000000e+00 0.0000000000000000e+00  0.0000000000000000e+00 0.0000000000000000e+00 0.0000000000000000e+00  0.0000000000000000e+00 0.0000000000000000e+00 0.0000000000000000e+00  0.0000000000000000e+00 0.0000000000000000e+00 0.0000000000000000e+00  0.0000000000000000e+00 0.0000000000000000e+00 0.0000000000000000e+00  0.0000000000000000e+00 0.0000000000000000e+00 0.0000000000000000e+00  0.0000000000000000e+00 0.0000000000000000e+00 0.0000000000000000e+00  0.0000000000000000e+00 0.0000000000000000e+00 0.0000000000000000e+00  0.0000000000000000e+00 0.0000000000000000e+00 0.0000000000000000e+00  0.0000000000000000e+00 0.0000000000000000e+00 0.0000000000000000e+00  0.0000000000000000e+00 0.0000000000000000e+00 0.0000000000000000e+00  0.0000000000000000e+00 0.0000000000000000e+00 0.0000000000000000e+00  0.0000000000000000e+00 0.0000000000000000e+00 0.0000000000000000e+00  0.0000000000000000e+00 0.0000000000000000e+00 0.0000000000000000e+00  0.0000000000000000e+00 0.0000000000000000e+00 0.0000000000000000e+00  0.0000000000000000e+00 0.0000000000000000e+00 0.0000000000000000e+00  0.0000000000000000e+00 0.0000000000000000e+00 0.0000000000000000e+00  0.0000000000000000e+00 0.0000000000000000e+00 0.0000000000000000e+00  0.0000000000000000e+00 0.0000000000000000e+00 0.0000000000000000e+00  0.0000000000000000e+00 0.0000000000000000e+00 0.0000000000000000e+00  0.0000000000000000e+00 0.0000000000000000e+00 0.0000000000000000e+00  0.0000000000000000e+00 0.0000000000000000e+00 0.0000000000000000e+00  1.8008828411915755e-09 7.9642055927654395e-10 0.0000000000000000e+00  -4.3460977493437087e-11 9.9227026586641107e-10 0.0000000000000000e+00  -2.2116322349611844e-09 8.6207587104040523e-10 0.0000000000000000e+00  0.0000000000000000e+00 0.0000000000000000e+00 0.0000000000000000e+00  0.0000000000000000e+00 0.0000000000000000e+00 0.0000000000000000e+00  0.0000000000000000e+00 0.0000000000000000e+00 0.0000000000000000e+00  0.0000000000000000e+00 0.0000000000000000e+00 0.0000000000000000e+00  0.0000000000000000e+00 0.0000000000000000e+00 0.0000000000000000e+00  0.0000000000000000e+00 0.0000000000000000e+00 0.0000000000000000e+00  0.0000000000000000e+00 0.0000000000000000e+00 0.0000000000000000e+00  0.0000000000000000e+00 0.0000000000000000e+00 0.0000000000000000e+00  0.0000000000000000e+00 0.0000000000000000e+00 0.0000000000000000e+00  0.0000000000000000e+00 0.0000000000000000e+00 0.0000000000000000e+00  0.0000000000000000e+00 0.0000000000000000e+00 0.0000000000000000e+00  0.0000000000000000e+00 0.0000000000000000e+00 0.0000000000000000e+00  0.0000000000000000e+00 0.0000000000000000e+00 0.0000000000000000e+00  0.0000000000000000e+00 0.0000000000000000e+00 0.0000000000000000e+00  0.0000000000000000e+00 0.0000000000000000e+00 0.0000000000000000e+00  0.0000000000000000e+00 0.0000000000000000e+00 0.0000000000000000e+00  0.0000000000000000e+00 0.0000000000000000e+00 0.0000000000000000e+00  0.0000000000000000e+00 0.0000000000000000e+00 0.0000000000000000e+00  0.0000000000000000e+00 0.0000000000000000e+00 0.0000000000000000e+00  0.0000000000000000e+00 0.0000000000000000e+00 0.0000000000000000e+00  0.0000000000000000e+00 0.0000000000000000e+00 0.0000000000000000e+00  0.0000000000000000e+00 0.0000000000000000e+00 0.0000000000000000e+00  0.0000000000000000e+00 0.0000000000000000e+00 0.0000000000000000e+00  0.0000000000000000e+00 0.0000000000000000e+00 0.0000000000000000e+00  0.0000000000000000e+00 0.0000000000000000e+00 0.0000000000000000e+00  0.0000000000000000e+00 0.0000000000000000e+00 0.0000000000000000e+00  0.0000000000000000e+00 0.0000000000000000e+00 0.0000000000000000e+00  0.0000000000000000e+00 0.0000000000000000e+00 0.0000000000000000e+00  0.0000000000000000e+00 0.0000000000000000e+00 0.0000000000000000e+00  0.0000000000000000e+00 0.0000000000000000e+00 0.0000000000000000e+00  0.0000000000000000e+00 0.0000000000000000e+00 0.0000000000000000e+00  0.0000000000000000e+00 0.0000000000000000e+00 0.0000000000000000e+00  0.0000000000000000e+00 0.0000000000000000e+00 0.0000000000000000e+00  0.0000000000000000e+00 0.0000000000000000e+00 0.0000000000000000e+00  0.0000000000000000e+00 0.0000000000000000e+00 0.0000000000000000e+00  0.0000000000000000e+00 0.0000000000000000e+00 0.0000000000000000e+00  0.0000000000000000e+00 0.0000000000000000e+00 0.0000000000000000e+00  0.0000000000000000e+00 0.0000000000000000e+00 0.0000000000000000e+00  0.0000000000000000e+00 0.0000000000000000e+00 0.0000000000000000e+00  0.0000000000000000e+00 0.0000000000000000e+00 0.0000000000000000e+00  0.0000000000000000e+00 0.0000000000000000e+00 0.0000000000000000e+00  0.0000000000000000e+00 0.0000000000000000e+00 0.0000000000000000e+00  0.0000000000000000e+00 0.0000000000000000e+00 0.0000000000000000e+00  0.0000000000000000e+00 0.0000000000000000e+00 0.0000000000000000e+00  0.0000000000000000e+00 0.0000000000000000e+00 0.0000000000000000e+00  0.0000000000000000e+00 0.0000000000000000e+00 0.0000000000000000e+00  0.0000000000000000e+00 0.0000000000000000e+00 0.0000000000000000e+00  0.0000000000000000e+00 0.0000000000000000e+00 0.0000000000000000e+00  0.0000000000000000e+00 0.0000000000000000e+00 0.0000000000000000e+00  0.0000000000000000e+00 0.0000000000000000e+00 0.0000000000000000e+00  0.0000000000000000e+00 0.0000000000000000e+00 0.0000000000000000e+00  0.0000000000000000e+00 0.0000000000000000e+00 0.0000000000000000e+00  0.0000000000000000e+00 0.0000000000000000e+00 0.0000000000000000e+00  0.0000000000000000e+00 0.0000000000000000e+00 0.0000000000000000e+00  0.0000000000000000e+00 0.0000000000000000e+00 0.0000000000000000e+00  0.0000000000000000e+00 0.0000000000000000e+00 0.0000000000000000e+00  0.0000000000000000e+00 0.0000000000000000e+00 0.0000000000000000e+00  0.0000000000000000e+00 0.0000000000000000e+00 0.0000000000000000e+00  0.0000000000000000e+00 0.0000000000000000e+00 0.0000000000000000e+00  0.0000000000000000e+00 0.0000000000000000e+00 0.0000000000000000e+00  0.0000000000000000e+00 0.0000000000000000e+00 0.0000000000000000e+00  0.0000000000000000e+00 0.0000000000000000e+00 0.0000000000000000e+00  0.0000000000000000e+00 0.0000000000000000e+00 0.0000000000000000e+00  0.0000000000000000e+00 0.0000000000000000e+00 0.0000000000000000e+00  0.0000000000000000e+00 0.0000000000000000e+00 0.0000000000000000e+00  0.0000000000000000e+00 0.0000000000000000e+00 0.0000000000000000e+00  0.0000000000000000e+00 0.0000000000000000e+00 0.0000000000000000e+00  0.0000000000000000e+00 0.0000000000000000e+00 0.0000000000000000e+00  0.0000000000000000e+00 0.0000000000000000e+00 0.0000000000000000e+00  0.0000000000000000e+00 0.0000000000000000e+00 0.0000000000000000e+00  0.0000000000000000e+00 0.0000000000000000e+00 0.0000000000000000e+00  0.0000000000000000e+00 0.0000000000000000e+00 0.0000000000000000e+00  0.0000000000000000e+00 0.0000000000000000e+00 0.0000000000000000e+00  0.0000000000000000e+00 0.0000000000000000e+00 0.0000000000000000e+00  0.0000000000000000e+00 0.0000000000000000e+00 0.0000000000000000e+00  0.0000000000000000e+00 0.0000000000000000e+00 0.0000000000000000e+00  0.0000000000000000e+00 0.0000000000000000e+00 0.0000000000000000e+00  0.0000000000000000e+00 0.0000000000000000e+00 0.0000000000000000e+00  2.8245087640237362e-02 5.3704793510624009e-02 0.0000000000000000e+00  2.1720647729942165e-02 1.5407410722146223e-02 0.0000000000000000e+00  1.2441675105847308e-02 -1.2606299330165436e-02 0.0000000000000000e+00  1.4171178897603033e-02 -3.4807006410983971e-02 0.0000000000000000e+00  6.4027618821511853e-03 -4.0638082956494403e-02 0.0000000000000000e+00  1.2623859907816823e-02 -5.4119846042580542e-02 0.0000000000000000e+00  8.0397546884624829e-03 -5.4239458978788332e-02 0.0000000000000000e+00  -1.9108507551055358e-03 -5.5834007284811887e-02 0.0000000000000000e+00  1.1216420263370044e-02 -4.9397833999190822e-02 0.0000000000000000e+00  -2.3226059507424103e-03 -5.0708917619633649e-02 0.0000000000000000e+00  9.6717085949449954e-03 -4.8408949817820762e-02 0.0000000000000000e+00  -2.2362433165762133e-03 -4.6943382365587261e-02 0.0000000000000000e+00  9.4922878712987539e-03 -4.7008152870971501e-02 0.0000000000000000e+00  1.2136998589872881e-05 -4.2299581509180999e-02 0.0000000000000000e+00  -1.0776991352519155e-03 -4.1540462921837835e-02 0.0000000000000000e+00  3.1993465451047995e-03 -3.7821900357852732e-02 0.0000000000000000e+00  -1.4631722144670802e-03 -3.9045213374837018e-02 0.0000000000000000e+00  3.7366036726436997e-03 -3.7066088755874062e-02 0.0000000000000000e+00  -2.1987078570910477e-03 -3.7332310342732440e-02 0.0000000000000000e+00  4.8238083989015903e-03 -3.7055347639272929e-02 0.0000000000000000e+00  -3.4012137998524873e-03 -3.6940533135977727e-02 0.0000000000000000e+00  6.8010823969934806e-03 -3.7513930442317434e-02 0.0000000000000000e+00  -1.5420114779418337e-03 -3.5792367480741258e-02 0.0000000000000000e+00  -3.0530510410819909e-03 -3.8336519614812166e-02 0.0000000000000000e+00  2.0635872413384926e-03 -3.9985722477276275e-02 0.0000000000000000e+00  -1.8447957950742902e-03 -4.1040724483937252e-02 0.0000000000000000e+00  2.2910289296993089e-03 -4.3168095368364391e-02 0.0000000000000000e+00  -4.0890712115592212e-03 -4.5973905681683920e-02 0.0000000000000000e+00  5.1810189154772625e-03 -4.7213406300426225e-02 0.0000000000000000e+00  -6.3596205039159436e-03 -4.8994728855818417e-02 0.0000000000000000e+00  6.2102349415920511e-03 -5.2132574649149277e-02 0.0000000000000000e+00  -5.8394670190387524e-03 -5.3493118869650635e-02 0.0000000000000000e+00  4.9466124257827229e-03 -6.0839936519652089e-02 0.0000000000000000e+00  -6.5651316189260832e-03 -6.3113968188145381e-02 0.0000000000000000e+00  5.3561588689352100e-03 -6.4723897266301927e-02 0.0000000000000000e+00  -8.8175588402587615e-03 -6.5231630631279555e-02 0.0000000000000000e+00  7.5377884434725522e-03 -7.0962359199099961e-02 0.0000000000000000e+00  -1.1554387186868508e-02 -7.7853324182718592e-02 0.0000000000000000e+00  8.8654682670678293e-03 -8.4778744512418333e-02 0.0000000000000000e+00  -1.1693722949533809e-02 -8.2211732474224752e-02 0.0000000000000000e+00  7.3172353132799168e-03 -9.1032492356523956e-02 0.0000000000000000e+00  -6.2805303682927227e-05 -8.8703867706600284e-02 0.0000000000000000e+00  -1.6175526852949807e-02 -9.2677696159677261e-02 0.0000000000000000e+00  7.8999916822690835e-03 -8.6318023467676419e-02 0.0000000000000000e+00  -1.1293759090010444e-02 -9.1027989545742302e-02 0.0000000000000000e+00  1.4533360527617490e-02 -6.6757081071228422e-02 0.0000000000000000e+00  1.6112380779880829e-02 -4.5190147475849596e-02 0.0000000000000000e+00  -1.1976160901892244e-02 -3.8913865751845182e-02 0.0000000000000000e+00  -2.8478468227509748e-03 -6.2593117651665101e-02 0.0000000000000000e+00  1.4851797787244910e-02 -8.4748459346926902e-02 0.0000000000000000e+00  -3.7760034825595175e-03 -8.6509815138363921e-02 0.0000000000000000e+00  1.5704333830169129e-02 -9.4980700911515364e-02 0.0000000000000000e+00  3.3735408902790887e-03 -8.4584881811012397e-02 0.0000000000000000e+00  -9.3671064045844927e-03 -8.8251090103637242e-02 0.0000000000000000e+00  1.2187196165213625e-02 -7.7038580829064909e-02 0.0000000000000000e+00  -9.3688314434642178e-03 -7.6403238971291254e-02 0.0000000000000000e+00  1.0283851795125939e-02 -7.3115616180798051e-02 0.0000000000000000e+00  -8.0736822919021782e-03 -7.1498898145522155e-02 0.0000000000000000e+00  8.1400722967251826e-03 -6.5340547176397645e-02 0.0000000000000000e+00  -7.5809259371691180e-03 -6.1748511740466465e-02 0.0000000000000000e+00  7.2355407689250152e-03 -5.5130000184240011e-02 0.0000000000000000e+00  -7.4307454823017054e-03 -5.3039983971402999e-02 0.0000000000000000e+00  5.7939255874683553e-03 -5.0613460788920900e-02 0.0000000000000000e+00  -6.5666723041623905e-03 -4.9605125009827201e-02 0.0000000000000000e+00  4.9012972783015613e-03 -4.6645315782894763e-02 0.0000000000000000e+00  -6.1903257250802927e-03 -4.4475228469842684e-02 0.0000000000000000e+00  4.5058507238545853e-03 -4.0915047554474240e-02 0.0000000000000000e+00  -5.9393758560031124e-03 -3.9878193188877101e-02 0.0000000000000000e+00  4.0353391264963644e-03 -3.9001657322980859e-02 0.0000000000000000e+00  -5.2920836113949411e-03 -3.7786918606719885e-02 0.0000000000000000e+00  4.1163740802625049e-03 -3.8359785658281929e-02 0.0000000000000000e+00  -1.9728470749886882e-03 -3.6048833732305746e-02 0.0000000000000000e+00  -4.7699826437980391e-03 -3.7245004988993198e-02 0.0000000000000000e+00  8.0357429269906023e-04 -3.5708783114817205e-02 0.0000000000000000e+00  -4.4375504156846553e-03 -3.8177005460044280e-02 0.0000000000000000e+00  1.3315998214979826e-03 -4.0032611923147894e-02 0.0000000000000000e+00  -4.1558776790769541e-03 -4.0663590068767963e-02 0.0000000000000000e+00  1.4058726349107057e-03 -4.1052115064841160e-02 0.0000000000000000e+00  -3.8744537123956931e-03 -3.9464595841770846e-02 0.0000000000000000e+00  1.6290963534333386e-03 -4.1486375805463271e-02 0.0000000000000000e+00  -4.3208683754553021e-05 -4.2522693474479595e-02 0.0000000000000000e+00  -9.7412864423507377e-03 -4.7414075680779932e-02 0.0000000000000000e+00  2.5965979377414474e-03 -4.7870847170213879e-02 0.0000000000000000e+00  -1.0480321337688815e-02 -5.0277610090713375e-02 0.0000000000000000e+00  3.1862537967483136e-03 -5.2545636094055395e-02 0.0000000000000000e+00  -1.1836399296190526e-02 -5.1979491791711713e-02 0.0000000000000000e+00  2.7404013951685593e-03 -5.5544214604602356e-02 0.0000000000000000e+00  -7.9776976709819234e-03 -5.3742586739247734e-02 0.0000000000000000e+00  -1.2948026351335497e-02 -5.4289814206850903e-02 0.0000000000000000e+00  -6.4771604711658885e-03 -4.1270991672146345e-02 0.0000000000000000e+00  -1.5471573043226368e-02 -3.5384210551207246e-02 0.0000000000000000e+00  -1.3180953560810121e-02 -1.2704132290463244e-02 0.0000000000000000e+00  -2.1711909373079381e-02 1.4146912212893870e-02 0.0000000000000000e+00  -2.8976540171360848e-02 5.3385652265294611e-02 0.0000000000000000e+00  4.5272397191027233e-06 -7.7713064684214427e-03 0.0000000000000000e+00  -8.4684398813716336e-04 5.2452400548879251e-02 0.0000000000000000e+00  -1.2683991934517619e-03 6.8655084190516316e-02 0.0000000000000000e+00  2.5882297736744670e-03 6.8140630962299248e-02 0.0000000000000000e+00  7.8524502332252843e-04 1.9974480238061240e-02 0.0000000000000000e+00  2.1166490533686350e-04 6.1890417554423927e-02 0.0000000000000000e+00  -1.3704906156873891e-04 3.6004292759642093e-02 0.0000000000000000e+00  1.1858473755950199e-04 5.5168232385504112e-02 0.0000000000000000e+00  1.4497786284569691e-03 4.3253643346227194e-02 0.0000000000000000e+00  1.3883924293510449e-04 4.0483623775921115e-02 0.0000000000000000e+00  -1.9047748219404062e-04 4.8743808853197346e-02 0.0000000000000000e+00  1.0287605383895932e-03 3.2516146307460352e-02 0.0000000000000000e+00  7.9190821615416631e-05 3.9017318979863859e-02 0.0000000000000000e+00  -1.0456707768053848e-03 3.5982047200837482e-02 0.0000000000000000e+00  -5.3470169616543834e-05 3.1370739842831341e-02 0.0000000000000000e+00  -1.0314560317885401e-04 3.5601876128122961e-02 0.0000000000000000e+00  1.4080159772698230e-04 4.3383109591194936e-02 0.0000000000000000e+00  -4.8979450676651199e-04 3.0497892737891771e-02 0.0000000000000000e+00  1.5440453007510978e-04 3.2603400198571504e-02 0.0000000000000000e+00  -2.6120825102858613e-04 2.9010697548636024e-02 0.0000000000000000e+00  -8.0337752538024482e-04 3.0411012884058189e-02 0.0000000000000000e+00  3.7332665701878529e-04 2.3385838316355899e-02 0.0000000000000000e+00  -4.3896559438722304e-05 2.6695083101548802e-02 0.0000000000000000e+00  -1.5189494030251109e-04 5.9900575052646315e-02 0.0000000000000000e+00  6.3557806965800037e-05 3.4205079459131968e-02 0.0000000000000000e+00  4.1739140100233163e-03 5.4584958424129117e-02 0.0000000000000000e+00  -1.1062329490583245e-02 4.1306043458486539e-03 0.0000000000000000e+00  -2.4451131149144764e-03 3.9941555538188990e-02 0.0000000000000000e+00  -3.8250103675795599e-03 4.5860799409181842e-02 0.0000000000000000e+00  3.9456239344009937e-03 2.9188325974307681e-02 0.0000000000000000e+00  -2.9763084539935754e-03 2.9284724403719823e-02 0.0000000000000000e+00  -1.4006105314796793e-03 2.8127579206137409e-02 0.0000000000000000e+00  -1.5975416990251883e-03 3.5352048062422328e-02 0.0000000000000000e+00  -1.4543027958988930e-03 2.2163393881086228e-02 0.0000000000000000e+00  -5.2725600890865564e-04 2.5381386360608691e-02 0.0000000000000000e+00  -1.2324988857413586e-03 2.5969727739913493e-02 0.0000000000000000e+00  -4.3832298691327771e-04 2.1995475538479053e-02 0.0000000000000000e+00  -6.2265311455336216e-04 2.4060220930254613e-02 0.0000000000000000e+00  -1.5633940052094280e-03 3.2384970490191144e-02 0.0000000000000000e+00  2.4055092667410607e-04 2.3032843644495222e-02 0.0000000000000000e+00  6.9613743727051203e-05 2.1351450268194013e-02 0.0000000000000000e+00  -2.3442559056165860e-03 -2.4466858023607683e-02 0.0000000000000000e+00  1.3200974257553586e-03 -2.3581479275747132e-02 0.0000000000000000e+00  -1.9262901891825050e-02 3.6265449667194971e-02 0.0000000000000000e+00  1.1516261278505975e-02 4.3152425486469165e-03