<?xml version="1.0"?>
<VTKFile type="UnstructuredGrid"  version="0.1"  >
<UnstructuredGrid>
<Piece  NumberOfPoints="1419" NumberOfCells="2698">
<Points>
<DataArray  type="Float64"  NumberOfComponents="3"  format="ascii">3.331431810139323e-09 -1.04863438979644e-06 0  1.567612501732656e-08 0.4099989468525427 0  2.500000023887766 -1.535989023161736e-06 0  2.500000023887775 0.40999846401099 0  0.6000000255038471 0.1899984123587644 0  0.6000000340021835 0.2099984141701562 0  0.25 0.2 0  0.150000009211012 0.199998958598 0  0.2489897948556636 0.21 0  0.2489897948556636 0.19 0  0.6000000315221297 0.1999984066464418 0  1.55368674246539e-08 0.3807132328725558 0  1.514008937151673e-08 0.3514275194184194 0  1.447281021363288e-08 0.3221418063667725 0  1.353451607182583e-08 0.2928560934512701 0  1.237232212227106e-08 0.2635703804669044 0  1.103066153538522e-08 0.2342846672763834 0  9.563255676081055e-09 0.2049989536737359 0  8.089985620540511e-09 0.1757132396935813 0  6.717227166500021e-09 0.1464275252973027 0  5.513081454770523e-09 0.1171418105624275 0  4.571528603408314e-09 0.0878560956143368 0  3.876033347347946e-09 0.05857038063669094 0  3.462983743172865e-09 0.02928466583214429 0  0.03015444079593452 -1.048837951139789e-06 0  0.06140002260372142 -1.049575561009309e-06 0  0.09377624271460223 -1.051248665629865e-06 0  0.1273239965688568 -1.05455837349906e-06 0  0.1620856854502132 -1.060763948037759e-06 0  0.198105241207992 -1.072953443896535e-06 0  0.2354281806166377 -1.095740162371294e-06 0  0.2741016533484674 -1.132082037638861e-06 0  0.3141745478688993 -1.182380163555044e-06 0  0.3556974895873865 -1.244641439417831e-06 0  0.3987229535512826 -1.311505311368181e-06 0  0.4433053081708964 -1.375369336184787e-06 0  0.4895008826000269 -1.431218467642418e-06 0  0.5373680717903038 -1.474508318195821e-06 0  0.5869673489831286 -1.503682222745054e-06 0  0.6383613854387862 -1.521517536541239e-06 0  0.6916151338266229 -1.530319733578841e-06 0  0.7467958809915828 -1.53417313207769e-06 0  0.803973368758867 -1.535726808019466e-06 0  0.8632198369049929 -1.536230093052059e-06 0  0.9246101560101143 -1.536306368611069e-06 0  0.9882219046358062 -1.53624378280494e-06 0  1.054135469242396 -1.536167837301652e-06 0  1.122434124308237 -1.536104527653218e-06 0  1.193204200959124 -1.536058599951965e-06 0  1.266535113728107 -1.536029276282267e-06 0  1.342519539912117 -1.536012006410001e-06 0  1.42125347237958 -1.536001772919583e-06 0  1.502836412987659 -1.535995765935974e-06 0  1.587371463643296 -1.535992529694912e-06 0  1.67496544266345 -1.535990816375614e-06 0  1.765729025712479 -1.535989904362098e-06 0  1.859776932767439 -1.53598945596254e-06 0  1.95722800137464 -1.535989220827848e-06 0  2.058205353757621 -1.535989113779547e-06 0  2.162836615077681 -1.535989059146647e-06 0  2.271253981178616 -1.535989035996078e-06 0  2.383594470691185 -1.535989026088394e-06 0  2.500000023887766 0.1024984640107399 0  2.50000002388777 0.2049984640104576 0  2.500000023887775 0.3074984640107063 0  2.383594470691434 0.4099984640109928 0  2.271253981179102 0.4099984640110029 0  2.162836615078409 0.4099984640110271 0  2.058205353758636 0.4099984640110793 0  1.957228001376027 0.4099984640111852 0  1.859776932769437 0.4099984640114319 0  1.765729025715465 0.4099984640118788 0  1.674965442668319 0.4099984640128288 0  1.587371463651519 0.4099984640145474 0  1.502836413002116 0.4099984640178213 0  1.421253472405735 0.4099984640241511 0  1.342519539958096 0.4099984640349079 0  1.266535113808097 0.4099984640537252 0  1.193204201100021 0.4099984640891846 0  1.122434124551924 0.4099984641528303 0  1.054135469645319 0.4099984642593615 0  0.9882219053085283 0.4099984644706732 0  0.924610157096192 0.4099984648592644 0  0.863219838642996 0.4099984656044122 0  0.8039733714800049 0.4099984670966116 0  0.7467958851694272 0.4099984700925673 0  0.691615140040147 0.4099984759317044 0  0.6383613944064555 0.4099984872932008 0  0.5869673614529769 0.4099985067930159 0  0.5373680882729758 0.4099985368809872 0  0.4895009033659935 0.409998579613548 0  0.4433053330316509 0.4099986327828303 0  0.3987229817046365 0.4099986928021855 0  0.3556975196841033 0.4099987548514462 0  0.3141745783012825 0.4099988127628738 0  0.2741016824141275 0.4099988608429788 0  0.2354282071748916 0.409998895401908 0  0.1981052646140434 0.4099989181222243 0  0.1620857056320629 0.4099989314546088 0  0.1273240139023009 0.4099989388909864 0  0.09377625779708568 0.4099989431760216 0  0.06140003612349658 0.409998945404706 0  0.03015445340641257 0.4099989465631044 0  0.2497468076502589 0.2050254481002335 0  0.2497468076502614 0.1949745518997913 0  0.2469965133856344 0.1829311936370434 0  0.243989360755778 0.1762309429335151 0  0.240033202733624 0.1700435359804843 0  0.2352133865275224 0.1645024184844583 0  0.2296338923253904 0.1597271106039134 0  0.223415089563266 0.1558206258208295 0  0.2166911398991556 0.1528672359888394 0  0.2096071028198033 0.1509306532448706 0  0.2023158062753754 0.1500526533588443 0  0.1949745494071533 0.15025217744065 0  0.1877417093011022 0.1515249193168473 0  0.1807733240127618 0.1538434209525429 0  0.1742197264538853 0.15715766315008 0  0.1682223010001311 0.1613961456701039 0  0.1629104335098682 0.1664674288885112 0  0.1583987198259994 0.172262107077706 0  0.1547844937150974 0.1786551681918788 0  0.1521457268664375 0.1855086911144116 0  0.1505393469315614 0.1926748208806367 0  0.1505393491920065 0.2073230965548718 0  0.1521457314092678 0.2144892270717011 0  0.1547845004931169 0.2213427512950817 0  0.1583987288760959 0.2277358144232949 0  0.1629104447986548 0.2335304954702534 0  0.1682223145743949 0.2386017828115489 0  0.1742197422694657 0.2428402708771523 0  0.1807733421112043 0.2461545207688034 0  0.1877417296829283 0.2484730329806987 0  0.1949745720892691 0.249745789433572 0  0.2023158312346501 0.2499453327862065 0  0.2096071301091622 0.2490673598075203 0  0.2166911694497421 0.2471308124940707 0  0.2234151213676815 0.244177472202876 0  0.2296339262609427 0.240271054697522 0  0.2352134223132609 0.2354958421326585 0  0.2400332397595815 0.2299548583110709 0  0.2439893973336617 0.2237676631043897 0  0.2469965448778163 0.2170677767282113 0  0.256458123251899 0.2099994968335658 0  0.2639264317139281 0.2099993257558381 0  0.2713947385273502 0.2099992141196467 0  0.2788630406023606 0.2099991283516627 0  0.2863313432122579 0.2099990577607423 0  0.2937996465494707 0.2099989957906362 0  0.3012679487105571 0.2099989392156113 0  0.3087362498414958 0.2099988992780998 0  0.3162045550776584 0.2099988609427658 0  0.3236728553714483 0.2099988253208153 0  0.331141160667273 0.2099987932708068 0  0.3386094602527759 0.2099987637919521 0  0.3460777644594908 0.2099987355196338 0  0.3535460645347701 0.209998704660781 0  0.361014364669811 0.2099986894860135 0  0.3684826680525625 0.2099986714199208 0  0.3759509671390282 0.2099986524526926 0  0.3834192704341348 0.2099986346502854 0  0.3908875694599806 0.2099986173987229 0  0.3983558728095208 0.2099986011724804 0  0.4058241716018027 0.2099985847987416 0  0.4132924745485916 0.2099985675273212 0  0.4207607735118793 0.2099985465142461 0  0.4282290735543112 0.2099985380914907 0  0.4356973764786861 0.2099985264973319 0  0.4431656762841 0.2099985136196213 0  0.4506339795595257 0.2099985006046073 0  0.4581022792970094 0.2099984879968353 0  0.4655705830138772 0.2099984757481883 0  0.4730388826251405 0.2099984639131046 0  0.4805071868218964 0.20999845234904 0  0.4879754867868446 0.20999844126297 0  0.4954437916817625 0.2099984302772077 0  0.5029120915530625 0.2099984208515383 0  0.5103803967761349 0.2099984125653787 0  0.5178486972379389 0.2099984051990032 0  0.5253170040565351 0.2099983977943184 0  0.5327853046392154 0.2099983908760632 0  0.5402536114877111 0.2099983853823194 0  0.5477219125909097 0.2099983817467393 0  0.5551902201866324 0.2099983763148177 0  0.5626585224193236 0.209998366840339 0  0.5701268237635093 0.2099983802355546 0  0.5775951308469917 0.2099983889469039 0  0.5850634315805467 0.2099983947022795 0  0.5925317353029032 0.2099984041908387 0  0.6000000350233906 0.2049984091588414 0  0.6000000267245292 0.1949984097075015 0  0.592531722485675 0.1899984011325265 0  0.5850634227252368 0.1899983896061393 0  0.5775951171521746 0.1899983803853418 0  0.5701268169745055 0.1899983715395017 0  0.5626585120562555 0.1899983587858468 0  0.5551902059839329 0.1899983662499565 0  0.5477219056756721 0.1899983688833481 0  0.5402535983618492 0.189998371682163 0  0.5327852982836507 0.1899983759462228 0  0.525316990410544 0.1899983816525788 0  0.5178486891696814 0.1899983885682288 0  0.5103803817511399 0.1899983964508176 0  0.5029120813189702 0.1899984051848341 0  0.4954437743186315 0.1899984150151669 0  0.4879754737703096 0.1899984257814067 0  0.4805071669741778 0.1899984373532781 0  0.473038865629914 0.1899984494511083 0  0.4655705591859969 0.1899984621881744 0  0.4581022584690288 0.1899984753585437 0  0.450633952720922 0.189998488975377 0  0.4431656518875675 0.1899985029696018 0  0.4356973460217448 0.1899985172188831 0  0.4282290443647828 0.1899985308436611 0  0.4207607392018497 0.1899985410567574 0  0.4132924348204347 0.1899985631221328 0  0.4058241337786918 0.1899985824414036 0  0.3983558291066323 0.1899985999933129 0  0.3908875276483141 0.1899986178862419 0  0.3834192227889524 0.1899986360657189 0  0.3759509210992981 0.1899986547280965 0  0.3684826163232343 0.1899986741000742 0  0.3610143151932676 0.1899986922304622 0  0.3535460103779213 0.1899987083052096 0  0.3460777047692085 0.1899987394930172 0  0.3386094032672864 0.1899987690585843 0  0.3311410976371366 0.1899987988771341 0  0.3236727968804842 0.1899988310619306 0  0.31620449196659 0.1899988664309516 0  0.3087361914052508 0.1899989040568607 0  0.3012678866760318 0.189998943623387 0  0.2937995835729891 0.1899989994501638 0  0.286331281875285 0.1899990610279021 0  0.278862979709389 0.1899991313418216 0  0.2713946760152082 0.1899992170785589 0  0.2639263762612896 0.1899993297783206 0  0.2564580773662729 0.1899994999273894 0  0.2
[...]
<PointData  Vectors="f_30-0"> 
<DataArray  type="Float64"  Name="f_30-0"  NumberOfComponents="3" format="ascii">0.0000000000000000e+00 0.0000000000000000e+00 0.0000000000000000e+00  0.0000000000000000e+00 0.0000000000000000e+00 0.0000000000000000e+00  0.0000000000000000e+00 0.0000000000000000e+00 0.0000000000000000e+00  0.0000000000000000e+00 0.0000000000000000e+00 0.0000000000000000e+00  8.7249542246458298e-03 -5.0456387910568085e-02 0.0000000000000000e+00  1.9033825316220304e-02 -4.5077460922090903e-02 0.0000000000000000e+00  0.0000000000000000e+00 0.0000000000000000e+00 0.0000000000000000e+00  0.0000000000000000e+00 0.0000000000000000e+00 0.0000000000000000e+00  0.0000000000000000e+00 0.0000000000000000e+00 0.0000000000000000e+00  0.0000000000000000e+00 0.0000000000000000e+00 0.0000000000000000e+00  4.3123773864458821e-02 -1.2117452633042000e-01 0.0000000000000000e+00  0.0000000000000000e+00 0.0000000000000000e+00 0.0000000000000000e+00  0.0000000000000000e+00 0.0000000000000000e+00 0.0000000000000000e+00  0.0000000000000000e+00 0.0000000000000000e+00 0.0000000000000000e+00  0.0000000000000000e+00 0.0000000000000000e+00 0.0000000000000000e+00  0.0000000000000000e+00 0.0000000000000000e+00 0.0000000000000000e+00  0.0000000000000000e+00 0.0000000000000000e+00 0.0000000000000000e+00  0.0000000000000000e+00 0.0000000000000000e+00 0.0000000000000000e+00  0.0000000000000000e+00 0.0000000000000000e+00 0.0000000000000000e+00  0.0000000000000000e+00 0.0000000000000000e+00 0.0000000000000000e+00  0.0000000000000000e+00 0.0000000000000000e+00 0.0000000000000000e+00  0.0000000000000000e+00 0.0000000000000000e+00 0.0000000000000000e+00  0.0000000000000000e+00 0.0000000000000000e+00 0.0000000000000000e+00  0.0000000000000000e+00 0.0000000000000000e+00 0.0000000000000000e+00  0.0000000000000000e+00 0.0000000000000000e+00 0.0000000000000000e+00  0.0000000000000000e+00 0.0000000000000000e+00 0.0000000000000000e+00  0.0000000000000000e+00 0.0000000000000000e+00 0.0000000000000000e+00  0.0000000000000000e+00 0.0000000000000000e+00 0.0000000000000000e+00  0.0000000000000000e+00 0.0000000000000000e+00 0.0000000000000000e+00  0.0000000000000000e+00 0.0000000000000000e+00 0.0000000000000000e+00  0.0000000000000000e+00 0.0000000000000000e+00 0.0000000000000000e+00  0.0000000000000000e+00 0.0000000000000000e+00 0.0000000000000000e+00  0.0000000000000000e+00 0.0000000000000000e+00 0.0000000000000000e+00  0.0000000000000000e+00 0.0000000000000000e+00 0.0000000000000000e+00  0.0000000000000000e+00 0.0000000000000000e+00 0.0000000000000000e+00  0.0000000000000000e+00 0.0000000000000000e+00 0.0000000000000000e+00  0.0000000000000000e+00 0.0000000000000000e+00 0.0000000000000000e+00  0.0000000000000000e+00 0.0000000000000000e+00 0.0000000000000000e+00  0.0000000000000000e+00 0.0000000000000000e+00 0.0000000000000000e+00  0.0000000000000000e+00 0.0000000000000000e+00 0.0000000000000000e+00  0.0000000000000000e+00 0.0000000000000000e+00 0.0000000000000000e+00  0.0000000000000000e+00 0.0000000000000000e+00 0.0000000000000000e+00  0.0000000000000000e+00 0.0000000000000000e+00 0.0000000000000000e+00  0.0000000000000000e+00 0.0000000000000000e+00 0.0000000000000000e+00  0.0000000000000000e+00 0.0000000000000000e+00 0.0000000000000000e+00  0.0000000000000000e+00 0.0000000000000000e+00 0.0000000000000000e+00  0.0000000000000000e+00 0.0000000000000000e+00 0.0000000000000000e+00  0.0000000000000000e+00 0.0000000000000000e+00 0.0000000000000000e+00  0.0000000000000000e+00 0.0000000000000000e+00 0.0000000000000000e+00  0.0000000000000000e+00 0.0000000000000000e+00 0.0000000000000000e+00  0.0000000000000000e+00 0.0000000000000000e+00 0.0000000000000000e+00  0.0000000000000000e+00 0.0000000000000000e+00 0.0000000000000000e+00  0.0000000000000000e+00 0.0000000000000000e+00 0.0000000000000000e+00  0.0000000000000000e+00 0.0000000000000000e+00 0.0000000000000000e+00  0.0000000000000000e+00 0.0000000000000000e+00 0.0000000000000000e+00  0.0000000000000000e+00 0.0000000000000000e+00 0.0000000000000000e+00  0.0000000000000000e+00 0.0000000000000000e+00 0.0000000000000000e+00  0.0000000000000000e+00 0.0000000000000000e+00 0.0000000000000000e+00  0.0000000000000000e+00 0.0000000000000000e+00 0.0000000000000000e+00  0.0000000000000000e+00 0.0000000000000000e+00 0.0000000000000000e+00  0.0000000000000000e+00 0.0000000000000000e+00 0.0000000000000000e+00  0.0000000000000000e+00 0.0000000000000000e+00 0.0000000000000000e+00  5.2671316759550928e-09 1.7353349408434104e-09 0.0000000000000000e+00  -2.0631965770182875e-10 2.2612999579768550e-09 0.0000000000000000e+00  -5.5922278792230341e-09 2.1047324432588453e-09 0.0000000000000000e+00  0.0000000000000000e+00 0.0000000000000000e+00 0.0000000000000000e+00  0.0000000000000000e+00 0.0000000000000000e+00 0.0000000000000000e+00  0.0000000000000000e+00 0.0000000000000000e+00 0.0000000000000000e+00  0.0000000000000000e+00 0.0000000000000000e+00 0.0000000000000000e+00  0.0000000000000000e+00 0.0000000000000000e+00 0.0000000000000000e+00  0.0000000000000000e+00 0.0000000000000000e+00 0.0000000000000000e+00  0.0000000000000000e+00 0.0000000000000000e+00 0.0000000000000000e+00  0.0000000000000000e+00 0.0000000000000000e+00 0.0000000000000000e+00  0.0000000000000000e+00 0.0000000000000000e+00 0.0000000000000000e+00  0.0000000000000000e+00 0.0000000000000000e+00 0.0000000000000000e+00  0.0000000000000000e+00 0.0000000000000000e+00 0.0000000000000000e+00  0.0000000000000000e+00 0.0000000000000000e+00 0.0000000000000000e+00  0.0000000000000000e+00 0.0000000000000000e+00 0.0000000000000000e+00  0.0000000000000000e+00 0.0000000000000000e+00 0.0000000000000000e+00  0.0000000000000000e+00 0.0000000000000000e+00 0.0000000000000000e+00  0.0000000000000000e+00 0.0000000000000000e+00 0.0000000000000000e+00  0.0000000000000000e+00 0.0000000000000000e+00 0.0000000000000000e+00  0.0000000000000000e+00 0.0000000000000000e+00 0.0000000000000000e+00  0.0000000000000000e+00 0.0000000000000000e+00 0.0000000000000000e+00  0.0000000000000000e+00 0.0000000000000000e+00 0.0000000000000000e+00  0.0000000000000000e+00 0.0000000000000000e+00 0.0000000000000000e+00  0.0000000000000000e+00 0.0000000000000000e+00 0.0000000000000000e+00  0.0000000000000000e+00 0.0000000000000000e+00 0.0000000000000000e+00  0.0000000000000000e+00 0.0000000000000000e+00 0.0000000000000000e+00  0.0000000000000000e+00 0.0000000000000000e+00 0.0000000000000000e+00  0.0000000000000000e+00 0.0000000000000000e+00 0.0000000000000000e+00  0.0000000000000000e+00 0.0000000000000000e+00 0.0000000000000000e+00  0.0000000000000000e+00 0.0000000000000000e+00 0.0000000000000000e+00  0.0000000000000000e+00 0.0000000000000000e+00 0.0000000000000000e+00  0.0000000000000000e+00 0.0000000000000000e+00 0.0000000000000000e+00  0.0000000000000000e+00 0.0000000000000000e+00 0.0000000000000000e+00  0.0000000000000000e+00 0.0000000000000000e+00 0.0000000000000000e+00  0.0000000000000000e+00 0.0000000000000000e+00 0.0000000000000000e+00  0.0000000000000000e+00 0.0000000000000000e+00 0.0000000000000000e+00  0.0000000000000000e+00 0.0000000000000000e+00 0.0000000000000000e+00  0.0000000000000000e+00 0.0000000000000000e+00 0.0000000000000000e+00  0.0000000000000000e+00 0.0000000000000000e+00 0.0000000000000000e+00  0.0000000000000000e+00 0.0000000000000000e+00 0.0000000000000000e+00  0.0000000000000000e+00 0.0000000000000000e+00 0.0000000000000000e+00  0.0000000000000000e+00 0.0000000000000000e+00 0.0000000000000000e+00  0.0000000000000000e+00 0.0000000000000000e+00 0.0000000000000000e+00  0.0000000000000000e+00 0.0000000000000000e+00 0.0000000000000000e+00  0.0000000000000000e+00 0.0000000000000000e+00 0.0000000000000000e+00  0.0000000000000000e+00 0.0000000000000000e+00 0.0000000000000000e+00  0.0000000000000000e+00 0.0000000000000000e+00 0.0000000000000000e+00  0.0000000000000000e+00 0.0000000000000000e+00 0.0000000000000000e+00  0.0000000000000000e+00 0.0000000000000000e+00 0.0000000000000000e+00  0.0000000000000000e+00 0.0000000000000000e+00 0.0000000000000000e+00  0.0000000000000000e+00 0.0000000000000000e+00 0.0000000000000000e+00  0.0000000000000000e+00 0.0000000000000000e+00 0.0000000000000000e+00  0.0000000000000000e+00 0.0000000000000000e+00 0.0000000000000000e+00  0.0000000000000000e+00 0.0000000000000000e+00 0.0000000000000000e+00  0.0000000000000000e+00 0.0000000000000000e+00 0.0000000000000000e+00  0.0000000000000000e+00 0.0000000000000000e+00 0.0000000000000000e+00  0.0000000000000000e+00 0.0000000000000000e+00 0.0000000000000000e+00  0.0000000000000000e+00 0.0000000000000000e+00 0.0000000000000000e+00  0.0000000000000000e+00 0.0000000000000000e+00 0.0000000000000000e+00  0.0000000000000000e+00 0.0000000000000000e+00 0.0000000000000000e+00  0.0000000000000000e+00 0.0000000000000000e+00 0.0000000000000000e+00  0.0000000000000000e+00 0.0000000000000000e+00 0.0000000000000000e+00  0.0000000000000000e+00 0.0000000000000000e+00 0.0000000000000000e+00  0.0000000000000000e+00 0.0000000000000000e+00 0.0000000000000000e+00  0.0000000000000000e+00 0.0000000000000000e+00 0.0000000000000000e+00  0.0000000000000000e+00 0.0000000000000000e+00 0.0000000000000000e+00  0.0000000000000000e+00 0.0000000000000000e+00 0.0000000000000000e+00  0.0000000000000000e+00 0.0000000000000000e+00 0.0000000000000000e+00  0.0000000000000000e+00 0.0000000000000000e+00 0.0000000000000000e+00  0.0000000000000000e+00 0.0000000000000000e+00 0.0000000000000000e+00  0.0000000000000000e+00 0.0000000000000000e+00 0.0000000000000000e+00  0.0000000000000000e+00 0.0000000000000000e+00 0.0000000000000000e+00  0.0000000000000000e+00 0.0000000000000000e+00 0.0000000000000000e+00  0.0000000000000000e+00 0.0000000000000000e+00 0.0000000000000000e+00  0.0000000000000000e+00 0.0000000000000000e+00 0.0000000000000000e+00  0.0000000000000000e+00 0.0000000000000000e+00 0.0000000000000000e+00  0.0000000000000000e+00 0.0000000000000000e+00 0.0000000000000000e+00  0.0000000000000000e+00 0.0000000000000000e+00 0.0000000000000000e+00  0.0000000000000000e+00 0.0000000000000000e+00 0.0000000000000000e+00  0.0000000000000000e+00 0.0000000000000000e+00 0.0000000000000000e+00  8.2996856945607780e-02 2.4711010085400442e-01 0.0000000000000000e+00  6.5838665878782315e-02 1.8976979542843614e-01 0.0000000000000000e+00  6.2288053009692493e-02 1.0731455408182018e-01 0.0000000000000000e+00  3.1978572147929561e-02 1.4988304923928619e-02 0.0000000000000000e+00  2.4885428560671340e-02 -2.5583613311833852e-02 0.0000000000000000e+00  2.3109160226436283e-02 -9.4126119378413545e-02 0.0000000000000000e+00  2.7726040681628240e-02 -1.2657762389124583e-01 0.0000000000000000e+00  -6.3137406975849308e-03 -1.4808737793413213e-01 0.0000000000000000e+00  3.4244266036118236e-02 -1.4869802107962263e-01 0.0000000000000000e+00  -6.3717912297294576e-03 -1.6093330094881914e-01 0.0000000000000000e+00  3.4373790329996344e-02 -1.6928981811831298e-01 0.0000000000000000e+00  -5.6095138598868674e-03 -1.6995896168049798e-01 0.0000000000000000e+00  3.9456062761445504e-02 -1.8243191092315986e-01 0.0000000000000000e+00  4.5098301063345369e-03 -1.7744442951258529e-01 0.0000000000000000e+00  -9.9354578427886478e-05 -1.6656028036522069e-01 0.0000000000000000e+00  1.6272905627548427e-02 -1.4679020004902166e-01 0.0000000000000000e+00  -3.4387556815816487e-03 -1.5511057216850602e-01 0.0000000000000000e+00  1.6159184437622612e-02 -1.4429498606796190e-01 0.0000000000000000e+00  -8.0829060570575140e-03 -1.4634121972860786e-01 0.0000000000000000e+00  1.9029493922336337e-02 -1.4614963866622488e-01 0.0000000000000000e+00  -1.5004198897778695e-02 -1.4616803618579347e-01 0.0000000000000000e+00  2.5975521982088769e-02 -1.5144661182706115e-01 0.0000000000000000e+00  -9.7590137112647871e-03 -1.5165177036041952e-01 0.0000000000000000e+00  -1.6818927831306282e-02 -1.5492791616359466e-01 0.0000000000000000e+00  2.4777056442516184e-03 -1.6221491727004930e-01 0.0000000000000000e+00  -1.3433302111476787e-02 -1.6488457212510260e-01 0.0000000000000000e+00  1.0591744918938880e-03 -1.7477418358178867e-01 0.0000000000000000e+00  -2.3652183973438719e-02 -1.8490741621205761e-01 0.0000000000000000e+00  1.2022180064739886e-02 -1.8856390379048460e-01 0.0000000000000000e+00  -3.3242879849014396e-02 -1.9342150754432252e-01 0.0000000000000000e+00  1.4671033258387827e-02 -2.0548901847109363e-01 0.0000000000000000e+00  -3.1192429823655377e-02 -2.0487881428736343e-01 0.0000000000000000e+00  9.6527136801658597e-03 -2.3892116162782881e-01 0.0000000000000000e+00  -2.8979657408167377e-02 -2.4143800135950302e-01 0.0000000000000000e+00  1.3632182647175414e-02 -2.3078528880489377e-01 0.0000000000000000e+00  -3.4070190859863451e-02 -2.2217581688729141e-01 0.0000000000000000e+00  2.0146507622317612e-02 -2.3324265719235635e-01 0.0000000000000000e+00  -3.7364097466213483e-02 -2.5566882155059206e-01 0.0000000000000000e+00  2.9672764840695171e-02 -2.6562928522257884e-01 0.0000000000000000e+00  -2.5913398202513083e-02 -2.4319234506743478e-01 0.0000000000000000e+00  3.3180221369398272e-02 -2.4797257275646051e-01 0.0000000000000000e+00  9.9095052558170246e-03 -2.3817629611386848e-01 0.0000000000000000e+00  -1.6740616386401393e-02 -2.1665168560438974e-01 0.0000000000000000e+00  4.1934954593572660e-02 -1.7558133369803897e-01 0.0000000000000000e+00  7.0668893072097418e-03 -2.0342146243072959e-01 0.0000000000000000e+00  7.7208909775035278e-02 -1.6476217740750432e-01 0.0000000000000000e+00  7.6791433443608045e-02 -1.2234235280780306e-01 0.0000000000000000e+00  -1.9119017302018117e-02 -9.7295936934957986e-02 0.0000000000000000e+00  -2.7528108032607549e-03 -1.2249212558182490e-01 0.0000000000000000e+00  4.5437171756474173e-02 -1.6907620100172441e-01 0.0000000000000000e+00  -7.8673687169015561e-04 -1.8480181402472570e-01 0.0000000000000000e+00  4.3719871093376848e-02 -2.2172260113105555e-01 0.0000000000000000e+00  1.6771468027870384e-02 -2.1568308993554824e-01 0.0000000000000000e+00  -2.3361280088657604e-02 -2.3649317447247395e-01 0.0000000000000000e+00  4.0751985496415108e-02 -2.2470014095883373e-01 0.0000000000000000e+00  -2.6095802157539739e-02 -2.2990772638738879e-01 0.0000000000000000e+00  3.5481529609045423e-02 -2.3199734978386477e-01 0.0000000000000000e+00  -2.7834093712336562e-02 -2.3076343369184146e-01 0.0000000000000000e+00  2.8636886164431469e-02 -2.2238507245213851e-01 0.0000000000000000e+00  -2.8473663827999089e-02 -2.1620095255089783e-01 0.0000000000000000e+00  2.6827830374457875e-02 -2.0595421190712646e-01 0.0000000000000000e+00  -3.0576041665980221e-02 -2.0111607152307812e-01 0.0000000000000000e+00  2.1311429638300305e-02 -1.9551419866374598e-01 0.0000000000000000e+00  -2.8816367932076360e-02 -1.9096359546672548e-01 0.0000000000000000e+00  1.8144283926240252e-02 -1.8254395550266644e-01 0.0000000000000000e+00  -2.8100144681089793e-02 -1.7483468763345353e-01 0.0000000000000000e+00  1.6559199940165446e-02 -1.6385225378442425e-01 0.0000000000000000e+00  -2.6387636383355912e-02 -1.5945630754859538e-01 0.0000000000000000e+00  1.5778798215472515e-02 -1.5675688205784605e-01 0.0000000000000000e+00  -2.3579338333089513e-02 -1.5200003724910824e-01 0.0000000000000000e+00  1.6322006241621331e-02 -1.5594023129450418e-01 0.0000000000000000e+00  -8.6785952945410538e-03 -1.5014228550287215e-01 0.0000000000000000e+00  -2.1074943694812824e-02 -1.5180860830334214e-01 0.0000000000000000e+00  4.2854334161771318e-03 -1.4170455516523861e-01 0.0000000000000000e+00  -1.8372513740681287e-02 -1.5014953427321795e-01 0.0000000000000000e+00  6.8892170038532480e-03 -1.5537609277050771e-01 0.0000000000000000e+00  -1.7285993981496807e-02 -1.5811135180955976e-01 0.0000000000000000e+00  6.8955629668624070e-03 -1.6015475180233318e-01 0.0000000000000000e+00  -1.5870253713241314e-02 -1.5629419576261541e-01 0.0000000000000000e+00  9.3961603403769859e-03 -1.6671528737178706e-01 0.0000000000000000e+00  -3.1159357768252723e-04 -1.7168664884242124e-01 0.0000000000000000e+00  -3.8011356634072957e-02 -1.8236031984940357e-01 0.0000000000000000e+00  8.5121918354897283e-03 -1.7111483821688636e-01 0.0000000000000000e+00  -4.0538727642796674e-02 -1.7235017451300239e-01 0.0000000000000000e+00  5.4706483414383705e-03 -1.6484110002381241e-01 0.0000000000000000e+00  -4.1795782308080162e-02 -1.5413979274672213e-01 0.0000000000000000e+00  2.5896342889404327e-03 -1.4550818136336852e-01 0.0000000000000000e+00  -3.2198766379661521e-02 -1.2320785652956305e-01 0.0000000000000000e+00  -3.2467735252583216e-02 -9.5457845353878912e-02 0.0000000000000000e+00  -3.0460624202151277e-02 -3.2750058866243041e-02 0.0000000000000000e+00  -3.0062919415387780e-02 6.9135328551751416e-03 0.0000000000000000e+00  -5.8039526648275767e-02 1.0116534090764945e-01 0.0000000000000000e+00  -7.5377378207937148e-02 2.0184994724176458e-01 0.0000000000000000e+00  -9.5344202394364821e-02 2.5294572712470870e-01 0.0000000000000000e+00  -4.2665056112460697e-03 -1.1456673654052861e-01 0.0000000000000000e+00  -6.8438220539500496e-03 1.0925854200084839e-01 0.0000000000000000e+00  -7.6825952664464974e-04 1.5419505594511176e-01 0.0000000000000000e+00  7.6703688098742175e-03 1.9049613617107578e-01 0.0000000000000000e+00  -4.7714315305380549e-03 -4.6686242409513190e-02 0.0000000000000000e+00  8.3350939802837032e-04 1.9317469639813253e-01 0.0000000000000000e+00  2.9210579582693566e-03 3.9034261625163762e-02 0.0000000000000000e+00  6.7044844217048418e-04 1.8347257856256394e-01 0.0000000000000000e+00  4.0084416694484582e-03 1.1952115452447629e-01 0.0000000000000000e+00  7.2525413801864560e-04 1.3268244585641309e-01 0.0000000000000000e+00  -3.6517197243233330e-03 1.7689487513528696e-01 0.0000000000000000e+00  3.8642808578578979e-03 1.2859458200640125e-01 0.0000000000000000e+00  -1.2650766943245934e-03 1.5214831913446905e-01 0.0000000000000000e+00  -3.2049805844651187e-03 1.3219826517626260e-01 0.0000000000000000e+00  2.8885657864953718e-04 1.2275176432671968e-01 0.0000000000000000e+00  -1.6585228788985572e-03 1.4157142644178314e-01 0.0000000000000000e+00  1.1407051873160874e-03 1.6616092418416911e-01 0.0000000000000000e+00  -2.1929226422235269e-03 1.1963322425017131e-01 0.0000000000000000e+00  -2.4960980573560945e-04 1.3083739431537669e-01 0.0000000000000000e+00  -9.3754151171577605e-04 1.1609486512426902e-01 0.0000000000000000e+00  -4.1059604831854167e-03 1.2286446402727479e-01 0.0000000000000000e+00  1.8535193274727951e-03 9.8301642208309795e-02 0.0000000000000000e+00  -9.6384146240755474e-04 1.0989234855701228e-01 0.0000000000000000e+00  -2.8617284841980567e-03 1.5612682321950819e-01 0.0000000000000000e+00  2.3323628570386936e-03 8.0698182970457194e-02 0.0000000000000000e+00  1.0484698518271354e-02 1.1418450274074975e-01 0.0000000000000000e+00  -3.3499391620576115e-02 -8.8321704012329860e-02 0.0000000000000000e+00  -3.6408266909801049e-03 1.2978368640948135e-01 0.0000000000000000e+00  -6.4294845673320842e-03 1.3851404622060229e-01 0.0000000000000000e+00  2.4885133321610992e-02 1.3993179138118626e-02 0.0000000000000000e+00  -2.0332756928580480e-03 9.0749996398069341e-02 0.0000000000000000e+00  -3.6345815714161969e-03 1.0878291182886951e-01 0.0000000000000000e+00  -1.0117154390092405e-03 1.2263599175225497e-01 0.0000000000000000e+00  -6.9961038059977833e-03 8.8320496968585113e-02 0.0000000000000000e+00  -3.9241162765306164e-04 9.9645103799391926e-02 0.0000000000000000e+00  4.9236665530067944e-04 9.2080090533715728e-02 0.0000000000000000e+00  -2.1701082467717918e-03 8.6559864885885351e-02 0.0000000000000000e+00  -1.4266691860638427e-03 9.6194660466066395e-02 0.0000000000000000e+00  -2.5738029551492067e-03 1.2382268098467045e-01 0.0000000000000000e+00  1.8641761609932000e-03 9.2019177973124561e-02 0.0000000000000000e+00  1.2047318148942234e-03 8.5393538986863859e-02 0.0000000000000000e+00  -2.5664726818710241e-02 -1.3115130971511940e-01 0.0000000000000000e+00  2.7179921366192520e-02 -1.2542220707228846e-01 0.0000000000000000e+00  -5.4675313960649369e-02 7.8119470591670653e-02 0.0000000000000000e+00  2.5164171079275186e-02 -8.9517354726094275e-02 0.