<?xml version="1.0"?>
<VTKFile type="UnstructuredGrid"  version="0.1"  >
<UnstructuredGrid>
<Piece  NumberOfPoints="1419" NumberOfCells="2698">
<Points>
<DataArray  type="Float64"  NumberOfComponents="3"  format="ascii">-7.247923384045364e-10 -7.846626940461255e-07 0  8.463308529590939e-09 0.4099992120500774 0  2.50000001036994 -1.146840068400946e-06 0  2.500000010369947 0.4099988531599417 0  0.6000000105225203 0.1899988128281598 0  0.6000000160536524 0.2099988146835979 0  0.25 0.2 0  0.1500000036909653 0.1999992206936175 0  0.2489897948556636 0.21 0  0.2489897948556636 0.19 0  0.6000000143535398 0.1999988083761759 0  8.360797088200875e-09 0.3807134979894264 0  8.068532833525107e-09 0.3514277843158049 0  7.576249810351808e-09 0.3221420709381977 0  6.882333535893528e-09 0.2928563576601431 0  6.021016399611563e-09 0.2635706443305616 0  5.024849218625087e-09 0.2342849308483082 0  3.933047417876359e-09 0.2049992170615984 0  2.835267414650879e-09 0.1757135029963026 0  1.810769124493884e-09 0.1464277886243281 0  9.107115873213339e-10 0.1171420740031009 0  2.057260365469026e-10 0.08785635922544423 0  -3.158059256230773e-10 0.05857064442683611 0  -6.259539466095423e-10 0.02928492975689773 0  0.03015443677444547 -7.84813355004328e-07 0  0.06140001869461489 -7.853590915314436e-07 0  0.09377623900084879 -7.86596129343413e-07 0  0.1273239931288543 -7.890415533305943e-07 0  0.1620856823419679 -7.93623690206681e-07 0  0.1981052384419651 -8.026179803520128e-07 0  0.2354281781053055 -8.194196607386025e-07 0  0.2741016508936861 -8.461971309359034e-07 0  0.3141745451955232 -8.832410487453297e-07 0  0.3556974862968449 -9.291065603420673e-07 0  0.3987229492847488 -9.784431534057372e-07 0  0.4433053025946798 -1.025767697553728e-06 0  0.4895008754839575 -1.067419924655957e-06 0  0.5373680630736598 -1.099974784955691e-06 0  0.5869673388073776 -1.122107276941187e-06 0  0.6383613740813536 -1.135725707208457e-06 0  0.6916151216509796 -1.142479564247314e-06 0  0.7467958682959989 -1.145442517420064e-06 0  0.8039733557365739 -1.146638330823956e-06 0  0.8632198236849843 -1.147025761322193e-06 0  0.9246101426696999 -1.147084457395148e-06 0  0.9882218912255749 -1.14703624615543e-06 0  1.054135455787609 -1.146977758050631e-06 0  1.122434110828036 -1.146929006549216e-06 0  1.19320418746279 -1.146893641417976e-06 0  1.266535100222304 -1.146871062309152e-06 0  1.34251952640105 -1.146857764837065e-06 0  1.421253458865469 -1.146849885312051e-06 0  1.502836399471786 -1.146845260113425e-06 0  1.587371450126484 -1.146842768311984e-06 0  1.674965429146142 -1.146841449113804e-06 0  1.765729012194908 -1.14684074689463e-06 0  1.859776919249739 -1.14684040164249e-06 0  1.957227987856872 -1.146840220596954e-06 0  2.058205340239823 -1.146840138173496e-06 0  2.162836601559866 -1.14684009610807e-06 0  2.271253967660795 -1.146840078282941e-06 0  2.383594457173361 -1.14684007065437e-06 0  2.50000001036994 0.1024988531596942 0  2.500000010369943 0.2049988531594109 0  2.500000010369947 0.3074988531596585 0  2.383594457173605 0.4099988531599439 0  2.27125396766127 0.4099988531599517 0  2.16283660156057 0.4099988531599703 0  2.058205340240781 0.4099988531600104 0  1.957227987858142 0.409998853160092 0  1.859776919251482 0.409998853160282 0  1.765729012197381 0.4099988531606261 0  1.674965429149962 0.4099988531613575 0  1.587371450132671 0.4099988531626808 0  1.502836399482334 0.4099988531652016 0  1.421253458884164 0.4099988531700753 0  1.342519526433531 0.4099988531783575 0  1.266535100278411 0.4099988531928459 0  1.193204187561187 0.4099988532201473 0  1.122434110997786 0.4099988532691486 0  1.054135456067886 0.4099988533511648 0  0.9882218916931058 0.4099988535138324 0  0.92461014342429 0.4099988538129315 0  0.863219824891955 0.4099988543863208 0  0.8039733576266104 0.4099988555339716 0  0.7467958712011646 0.4099988578363049 0  0.691615125984803 0.4099988623167964 0  0.6383613803745984 0.4099988710089185 0  0.5869673476286329 0.4099988858579204 0  0.537368074857859 0.409998908632099 0  0.4895008904967119 0.4099989407232751 0  0.4433053207294901 0.4099989803546061 0  0.3987229699589034 0.4099990248286132 0  0.3556975085048104 0.4099990706263322 0  0.3141745677216812 0.409999113287452 0  0.2741016724580021 0.4099991486918509 0  0.2354281978323955 0.4099991741452491 0  0.1981052558407791 0.409999190883748 0  0.1620856973521866 0.4099992007073403 0  0.1273240060249887 0.4099992061863029 0  0.09377625022475779 0.4099992093428189 0  0.06140002875642542 0.4099992109840845 0  0.03015444616030777 0.4099992118370021 0  0.2497468076502589 0.2050254481002335 0  0.2497468076502614 0.1949745518997913 0  0.2469965150069636 0.1829313208284489 0  0.2439893620370602 0.1762311158218326 0  0.2400332034621734 0.1700437358535233 0  0.235213386693947 0.1645026354955925 0  0.2296338919616618 0.1597273398506425 0  0.2234150887114658 0.1558208638531499 0  0.2166911386003668 0.152867480406637 0  0.2096071011157828 0.1509309022689403 0  0.2023158041816132 0.1500529059365885 0  0.1949745469556386 0.1502524325619606 0  0.1877417065037696 0.1515251763666046 0  0.1807733208899968 0.1538436793958438 0  0.1742197230106046 0.1571579226512181 0  0.168222297250932 0.1613964059374245 0  0.1629104294545709 0.1664676897430006 0  0.1583987154748254 0.1722623683604756 0  0.1547844890664483 0.1786554297987639 0  0.1521457219280687 0.1855089529520276 0  0.1505393416986162 0.1926750828818707 0  0.1505393433842743 0.207323358682112 0  0.1521457253157545 0.2144894891657496 0  0.1547844941211979 0.2213430132788374 0  0.1583987222243829 0.2277360762032215 0  0.1629104378744779 0.2335307569294328 0  0.1682223073767567 0.2386020437774601 0  0.1742197348101044 0.2428405311562493 0  0.1807733343945836 0.2461547800903487 0  0.1877417217160037 0.248473290926692 0  0.1949745638888972 0.2497460454935206 0  0.202315822819727 0.2499455863503351 0  0.2096071214993238 0.2490676098967623 0  0.2166911606805285 0.24713105794707 0  0.2234151124846609 0.244177711146374 0  0.2296339173319345 0.2402712849655981 0  0.2352134134499733 0.2354960600095651 0  0.2400332311361143 0.229955058987651 0  0.2439893893451571 0.2237678368933899 0  0.2469965384614996 0.2170679046151148 0  0.2564581152111122 0.209999620327988 0  0.2639264217020291 0.2099994905542598 0  0.2713947266717094 0.2099994059501449 0  0.2788630292888275 0.2099993415152586 0  0.2863313316615303 0.209999289002014 0  0.2937996352119088 0.2099992431608386 0  0.3012679372568824 0.2099992012078859 0  0.3087362382898655 0.2099991730861068 0  0.3162045426296742 0.2099991458603826 0  0.323672843036005 0.2099991205166555 0  0.331141147246271 0.2099990978493377 0  0.3386094471529705 0.2099990770196595 0  0.3460777504594576 0.2099990570953109 0  0.3535460507834021 0.2099990353621634 0  0.3610143512931001 0.2099990243785277 0  0.3684826541594146 0.2099990113491735 0  0.3759509540822345 0.2099989977638035 0  0.3834192569933696 0.2099989849223174 0  0.3908875569524882 0.2099989725064411 0  0.3983558599429692 0.2099989608057251 0  0.4058241597861765 0.2099989489905991 0  0.4132924624964337 0.2099989365731768 0  0.4207607625028274 0.2099989216301765 0  0.4282290631789437 0.2099989151078749 0  0.4356973658395885 0.2099989064647886 0  0.4431656663443399 0.2099988968915315 0  0.4506339692026342 0.2099988872293516 0  0.4581022695917508 0.2099988777724207 0  0.4655705726700596 0.2099988685091424 0  0.4730388728939963 0.2099988594751692 0  0.4805071762301856 0.2099988506075126 0  0.4879754765833851 0.2099988419589409 0  0.4954437802571359 0.2099988334885523 0  0.502912080357409 0.2099988258684058 0  0.5103803842368023 0.2099988188439106 0  0.5178486847296865 0.2099988124996522 0  0.5253169898359877 0.2099988062085824 0  0.5327852902616467 0.2099988003302136 0  0.5402535952842762 0.2099987954230115 0  0.5477218959987176 0.2099987917872818 0  0.55519020170828 0.2099987867128539 0  0.5626585032747088 0.2099987785843752 0  0.5701268047030307 0.2099987883319608 0  0.5775951108370316 0.2099987946427576 0  0.5850634119138094 0.2099987993621805 0  0.5925317157655441 0.2099988070271116 0  0.6000000169163717 0.2049988106474211 0  0.6000000109877472 0.1949988107859461 0  0.5925317077296267 0.1899988036095254 0  0.5850634075666992 0.1899987945680384 0  0.5775951028803852 0.1899987877262567 0  0.5701268026878086 0.1899987813155919 0  0.5626584985786957 0.189998771924224 0  0.5551901936684107 0.1899987786885207 0  0.5477218932338862 0.18999878170379 0  0.5402535874550711 0.1899987847559877 0  0.5327852871626312 0.189998788834246 0  0.525316981063936 0.1899987939683841 0  0.5178486798421498 0.1899988000026094 0  0.5103803740790328 0.1899988067527698 0  0.5029120733202956 0.1899988140927422 0  0.4954437678970925 0.1899988220598183 0  0.4879754669773563 0.1899988305469874 0  0.4805071616836449 0.1899988395031444 0  0.4730388601582673 0.1899988487971965 0  0.4655705550931427 0.1899988584910646 0  0.4581022539305872 0.18999886844792 0  0.450633949289374 0.1899988786269061 0  0.4431656480112288 0.1899988890140599 0  0.4356973432778851 0.1899988995416824 0  0.4282290414267383 0.18999890961678 0  0.420760737153939 0.1899989173336369 0  0.4132924333971357 0.1899989331394391 0  0.4058241319385759 0.1899989470132219 0  0.3983558279889248 0.1899989596621035 0  0.3908875262809224 0.1899989725410822 0  0.383419222219186 0.1899989856449895 0  0.3759509203666436 0.1899989990935005 0  0.3684826163382144 0.1899990130614192 0  0.3610143148605987 0.1899990260915615 0  0.3535460107987975 0.1899990376033998 0  0.3460777062202639 0.189999059733461 0  0.3386094046331758 0.1899990806904298 0  0.331141099991258 0.1899991017999325 0  0.3236727989689763 0.1899991246342117 0  0.3162044946919965 0.189999149805035 0  0.3087361938037931 0.1899991765364129 0  0.3012678895029434 0.1899992044402649 0  0.293799586454796 0.1899992458625012 0  0.2863312851046947 0.1899992915229022 0  0.2788629828420848 0.1899993438865362 0  0.271394680519552 0.1899994080270727 0  0.263926380399726 0.1899994930230051 0  0.2564580813362354 0.1899996224241032 0 
[...]
<PointData  Vectors="f_30-0"> 
<DataArray  type="Float64"  Name="f_30-0"  NumberOfComponents="3" format="ascii">0.0000000000000000e+00 0.0000000000000000e+00 0.0000000000000000e+00  0.0000000000000000e+00 0.0000000000000000e+00 0.0000000000000000e+00  0.0000000000000000e+00 0.0000000000000000e+00 0.0000000000000000e+00  0.0000000000000000e+00 0.0000000000000000e+00 0.0000000000000000e+00  6.8258148824261672e-03 -3.8107919963153131e-02 0.0000000000000000e+00  8.2456396875588804e-03 -3.3755666509585606e-02 0.0000000000000000e+00  0.0000000000000000e+00 0.0000000000000000e+00 0.0000000000000000e+00  0.0000000000000000e+00 0.0000000000000000e+00 0.0000000000000000e+00  0.0000000000000000e+00 0.0000000000000000e+00 0.0000000000000000e+00  0.0000000000000000e+00 0.0000000000000000e+00 0.0000000000000000e+00  2.7080985202153410e-02 -9.7275307266357802e-02 0.0000000000000000e+00  0.0000000000000000e+00 0.0000000000000000e+00 0.0000000000000000e+00  0.0000000000000000e+00 0.0000000000000000e+00 0.0000000000000000e+00  0.0000000000000000e+00 0.0000000000000000e+00 0.0000000000000000e+00  0.0000000000000000e+00 0.0000000000000000e+00 0.0000000000000000e+00  0.0000000000000000e+00 0.0000000000000000e+00 0.0000000000000000e+00  0.0000000000000000e+00 0.0000000000000000e+00 0.0000000000000000e+00  0.0000000000000000e+00 0.0000000000000000e+00 0.0000000000000000e+00  0.0000000000000000e+00 0.0000000000000000e+00 0.0000000000000000e+00  0.0000000000000000e+00 0.0000000000000000e+00 0.0000000000000000e+00  0.0000000000000000e+00 0.0000000000000000e+00 0.0000000000000000e+00  0.0000000000000000e+00 0.0000000000000000e+00 0.0000000000000000e+00  0.0000000000000000e+00 0.0000000000000000e+00 0.0000000000000000e+00  0.0000000000000000e+00 0.0000000000000000e+00 0.0000000000000000e+00  0.0000000000000000e+00 0.0000000000000000e+00 0.0000000000000000e+00  0.0000000000000000e+00 0.0000000000000000e+00 0.0000000000000000e+00  0.0000000000000000e+00 0.0000000000000000e+00 0.0000000000000000e+00  0.0000000000000000e+00 0.0000000000000000e+00 0.0000000000000000e+00  0.0000000000000000e+00 0.0000000000000000e+00 0.0000000000000000e+00  0.0000000000000000e+00 0.0000000000000000e+00 0.0000000000000000e+00  0.0000000000000000e+00 0.0000000000000000e+00 0.0000000000000000e+00  0.0000000000000000e+00 0.0000000000000000e+00 0.0000000000000000e+00  0.0000000000000000e+00 0.0000000000000000e+00 0.0000000000000000e+00  0.0000000000000000e+00 0.0000000000000000e+00 0.0000000000000000e+00  0.0000000000000000e+00 0.0000000000000000e+00 0.0000000000000000e+00  0.0000000000000000e+00 0.0000000000000000e+00 0.0000000000000000e+00  0.0000000000000000e+00 0.0000000000000000e+00 0.0000000000000000e+00  0.0000000000000000e+00 0.0000000000000000e+00 0.0000000000000000e+00  0.0000000000000000e+00 0.0000000000000000e+00 0.0000000000000000e+00  0.0000000000000000e+00 0.0000000000000000e+00 0.0000000000000000e+00  0.0000000000000000e+00 0.0000000000000000e+00 0.0000000000000000e+00  0.0000000000000000e+00 0.0000000000000000e+00 0.0000000000000000e+00  0.0000000000000000e+00 0.0000000000000000e+00 0.0000000000000000e+00  0.0000000000000000e+00 0.0000000000000000e+00 0.0000000000000000e+00  0.0000000000000000e+00 0.0000000000000000e+00 0.0000000000000000e+00  0.0000000000000000e+00 0.0000000000000000e+00 0.0000000000000000e+00  0.0000000000000000e+00 0.0000000000000000e+00 0.0000000000000000e+00  0.0000000000000000e+00 0.0000000000000000e+00 0.0000000000000000e+00  0.0000000000000000e+00 0.0000000000000000e+00 0.0000000000000000e+00  0.0000000000000000e+00 0.0000000000000000e+00 0.0000000000000000e+00  0.0000000000000000e+00 0.0000000000000000e+00 0.0000000000000000e+00  0.0000000000000000e+00 0.0000000000000000e+00 0.0000000000000000e+00  0.0000000000000000e+00 0.0000000000000000e+00 0.0000000000000000e+00  0.0000000000000000e+00 0.0000000000000000e+00 0.0000000000000000e+00  0.0000000000000000e+00 0.0000000000000000e+00 0.0000000000000000e+00  0.0000000000000000e+00 0.0000000000000000e+00 0.0000000000000000e+00  0.0000000000000000e+00 0.0000000000000000e+00 0.0000000000000000e+00  0.0000000000000000e+00 0.0000000000000000e+00 0.0000000000000000e+00  0.0000000000000000e+00 0.0000000000000000e+00 0.0000000000000000e+00  0.0000000000000000e+00 0.0000000000000000e+00 0.0000000000000000e+00  0.0000000000000000e+00 0.0000000000000000e+00 0.0000000000000000e+00  0.0000000000000000e+00 0.0000000000000000e+00 0.0000000000000000e+00  4.0966154249235814e-09 1.4297370333665280e-09 0.0000000000000000e+00  -1.7251314258512833e-10 1.8253194287766733e-09 0.0000000000000000e+00  -4.4914847645436915e-09 1.7079773826326469e-09 0.0000000000000000e+00  0.0000000000000000e+00 0.0000000000000000e+00 0.0000000000000000e+00  0.0000000000000000e+00 0.0000000000000000e+00 0.0000000000000000e+00  0.0000000000000000e+00 0.0000000000000000e+00 0.0000000000000000e+00  0.0000000000000000e+00 0.0000000000000000e+00 0.0000000000000000e+00  0.0000000000000000e+00 0.0000000000000000e+00 0.0000000000000000e+00  0.0000000000000000e+00 0.0000000000000000e+00 0.0000000000000000e+00  0.0000000000000000e+00 0.0000000000000000e+00 0.0000000000000000e+00  0.0000000000000000e+00 0.0000000000000000e+00 0.0000000000000000e+00  0.0000000000000000e+00 0.0000000000000000e+00 0.0000000000000000e+00  0.0000000000000000e+00 0.0000000000000000e+00 0.0000000000000000e+00  0.0000000000000000e+00 0.0000000000000000e+00 0.0000000000000000e+00  0.0000000000000000e+00 0.0000000000000000e+00 0.0000000000000000e+00  0.0000000000000000e+00 0.0000000000000000e+00 0.0000000000000000e+00  0.0000000000000000e+00 0.0000000000000000e+00 0.0000000000000000e+00  0.0000000000000000e+00 0.0000000000000000e+00 0.0000000000000000e+00  0.0000000000000000e+00 0.0000000000000000e+00 0.0000000000000000e+00  0.0000000000000000e+00 0.0000000000000000e+00 0.0000000000000000e+00  0.0000000000000000e+00 0.0000000000000000e+00 0.0000000000000000e+00  0.0000000000000000e+00 0.0000000000000000e+00 0.0000000000000000e+00  0.0000000000000000e+00 0.0000000000000000e+00 0.0000000000000000e+00  0.0000000000000000e+00 0.0000000000000000e+00 0.0000000000000000e+00  0.0000000000000000e+00 0.0000000000000000e+00 0.0000000000000000e+00  0.0000000000000000e+00 0.0000000000000000e+00 0.0000000000000000e+00  0.0000000000000000e+00 0.0000000000000000e+00 0.0000000000000000e+00  0.0000000000000000e+00 0.0000000000000000e+00 0.0000000000000000e+00  0.0000000000000000e+00 0.0000000000000000e+00 0.0000000000000000e+00  0.0000000000000000e+00 0.0000000000000000e+00 0.0000000000000000e+00  0.0000000000000000e+00 0.0000000000000000e+00 0.0000000000000000e+00  0.0000000000000000e+00 0.0000000000000000e+00 0.0000000000000000e+00  0.0000000000000000e+00 0.0000000000000000e+00 0.0000000000000000e+00  0.0000000000000000e+00 0.0000000000000000e+00 0.0000000000000000e+00  0.0000000000000000e+00 0.0000000000000000e+00 0.0000000000000000e+00  0.0000000000000000e+00 0.0000000000000000e+00 0.0000000000000000e+00  0.0000000000000000e+00 0.0000000000000000e+00 0.0000000000000000e+00  0.0000000000000000e+00 0.0000000000000000e+00 0.0000000000000000e+00  0.0000000000000000e+00 0.0000000000000000e+00 0.0000000000000000e+00  0.0000000000000000e+00 0.0000000000000000e+00 0.0000000000000000e+00  0.0000000000000000e+00 0.0000000000000000e+00 0.0000000000000000e+00  0.0000000000000000e+00 0.0000000000000000e+00 0.0000000000000000e+00  0.0000000000000000e+00 0.0000000000000000e+00 0.0000000000000000e+00  0.0000000000000000e+00 0.0000000000000000e+00 0.0000000000000000e+00  0.0000000000000000e+00 0.0000000000000000e+00 0.0000000000000000e+00  0.0000000000000000e+00 0.0000000000000000e+00 0.0000000000000000e+00  0.0000000000000000e+00 0.0000000000000000e+00 0.0000000000000000e+00  0.0000000000000000e+00 0.0000000000000000e+00 0.0000000000000000e+00  0.0000000000000000e+00 0.0000000000000000e+00 0.0000000000000000e+00  0.0000000000000000e+00 0.0000000000000000e+00 0.0000000000000000e+00  0.0000000000000000e+00 0.0000000000000000e+00 0.0000000000000000e+00  0.0000000000000000e+00 0.0000000000000000e+00 0.0000000000000000e+00  0.0000000000000000e+00 0.0000000000000000e+00 0.0000000000000000e+00  0.0000000000000000e+00 0.0000000000000000e+00 0.0000000000000000e+00  0.0000000000000000e+00 0.0000000000000000e+00 0.0000000000000000e+00  0.0000000000000000e+00 0.0000000000000000e+00 0.0000000000000000e+00  0.0000000000000000e+00 0.0000000000000000e+00 0.0000000000000000e+00  0.0000000000000000e+00 0.0000000000000000e+00 0.0000000000000000e+00  0.0000000000000000e+00 0.0000000000000000e+00 0.0000000000000000e+00  0.0000000000000000e+00 0.0000000000000000e+00 0.0000000000000000e+00  0.0000000000000000e+00 0.0000000000000000e+00 0.0000000000000000e+00  0.0000000000000000e+00 0.0000000000000000e+00 0.0000000000000000e+00  0.0000000000000000e+00 0.0000000000000000e+00 0.0000000000000000e+00  0.0000000000000000e+00 0.0000000000000000e+00 0.0000000000000000e+00  0.0000000000000000e+00 0.0000000000000000e+00 0.0000000000000000e+00  0.0000000000000000e+00 0.0000000000000000e+00 0.0000000000000000e+00  0.0000000000000000e+00 0.0000000000000000e+00 0.0000000000000000e+00  0.0000000000000000e+00 0.0000000000000000e+00 0.0000000000000000e+00  0.0000000000000000e+00 0.0000000000000000e+00 0.0000000000000000e+00  0.0000000000000000e+00 0.0000000000000000e+00 0.0000000000000000e+00  0.0000000000000000e+00 0.0000000000000000e+00 0.0000000000000000e+00  0.0000000000000000e+00 0.0000000000000000e+00 0.0000000000000000e+00  0.0000000000000000e+00 0.0000000000000000e+00 0.0000000000000000e+00  0.0000000000000000e+00 0.0000000000000000e+00 0.0000000000000000e+00  0.0000000000000000e+00 0.0000000000000000e+00 0.0000000000000000e+00  0.0000000000000000e+00 0.0000000000000000e+00 0.0000000000000000e+00  0.0000000000000000e+00 0.0000000000000000e+00 0.0000000000000000e+00  0.0000000000000000e+00 0.0000000000000000e+00 0.0000000000000000e+00  0.0000000000000000e+00 0.0000000000000000e+00 0.0000000000000000e+00  0.0000000000000000e+00 0.0000000000000000e+00 0.0000000000000000e+00  0.0000000000000000e+00 0.0000000000000000e+00 0.0000000000000000e+00  6.4850440503043505e-02 1.7413638477772966e-01 0.0000000000000000e+00  5.0956870857314401e-02 1.2034191230093966e-01 0.0000000000000000e+00  4.1390910425950590e-02 5.4064407087568926e-02 0.0000000000000000e+00  2.5499243857783106e-02 -1.5080748518288008e-02 0.0000000000000000e+00  1.7111911094380004e-02 -4.2035367557576961e-02 0.0000000000000000e+00  2.1341090579433716e-02 -9.1654381707159269e-02 0.0000000000000000e+00  2.1538557526893116e-02 -1.1153831549395218e-01 0.0000000000000000e+00  -4.3054050049030458e-03 -1.2329337854186316e-01 0.0000000000000000e+00  2.7946560032817931e-02 -1.1761885061699628e-01 0.0000000000000000e+00  -4.5112137746706497e-03 -1.2540844519180699e-01 0.0000000000000000e+00  2.6519195561849718e-02 -1.2709982948129855e-01 0.0000000000000000e+00  -4.3940517079053389e-03 -1.2633703525521212e-01 0.0000000000000000e+00  2.8442962766437378e-02 -1.3224624223367912e-01 0.0000000000000000e+00  1.9376906527990212e-03 -1.2528476219009410e-01 0.0000000000000000e+00  -1.4132558552500908e-03 -1.1848853786375675e-01 0.0000000000000000e+00  1.0440858995531037e-02 -1.0497549670873797e-01 0.0000000000000000e+00  -3.4145018928630547e-03 -1.0957324243180058e-01 0.0000000000000000e+00  1.0863338046227538e-02 -1.0224360977396474e-01 0.0000000000000000e+00  -6.1698763966839447e-03 -1.0317674937182675e-01 0.0000000000000000e+00  1.3256365636858888e-02 -1.0239810843693362e-01 0.0000000000000000e+00  -1.0364148342734225e-02 -1.0217585410832440e-01 0.0000000000000000e+00  1.8398328724771058e-02 -1.0520432561406995e-01 0.0000000000000000e+00  -6.0739142075289573e-03 -1.0388491024549892e-01 0.0000000000000000e+00  -1.0694691229394279e-02 -1.0728194408272865e-01 0.0000000000000000e+00  3.1542818288601993e-03 -1.1129430658182161e-01 0.0000000000000000e+00  -7.8655984529808470e-03 -1.1353000926324298e-01 0.0000000000000000e+00  2.7442829873883319e-03 -1.1960173851604268e-01 0.0000000000000000e+00  -1.4582432644250670e-02 -1.2689584566697845e-01 0.0000000000000000e+00  1.0435963972787596e-02 -1.2977286915017708e-01 0.0000000000000000e+00  -2.1188303261507370e-02 -1.3378685312239808e-01 0.0000000000000000e+00  1.2560272528314714e-02 -1.4230529632131758e-01 0.0000000000000000e+00  -1.9966002363331358e-02 -1.4364945151532266e-01 0.0000000000000000e+00  8.7180107661766187e-03 -1.6565463705459735e-01 0.0000000000000000e+00  -2.0158626331379541e-02 -1.6908488435817084e-01 0.0000000000000000e+00  1.0385763393464321e-02 -1.6643569303505915e-01 0.0000000000000000e+00  -2.4915352154241229e-02 -1.6273835072742329e-01 0.0000000000000000e+00  1.5196165549219973e-02 -1.7298390204652495e-01 0.0000000000000000e+00  -2.8993814065236597e-02 -1.8904874505299821e-01 0.0000000000000000e+00  2.0530370530481911e-02 -1.9921970195899499e-01 0.0000000000000000e+00  -2.3661106804806528e-02 -1.8518493940759637e-01 0.0000000000000000e+00  2.1011379269556572e-02 -1.9472343866901326e-01 0.0000000000000000e+00  3.4363375952834968e-03 -1.8736938615288826e-01 0.0000000000000000e+00  -2.0664401736676427e-02 -1.7605927230212842e-01 0.0000000000000000e+00  2.6651180690013005e-02 -1.4796173207139168e-01 0.0000000000000000e+00  -3.7048818666304143e-03 -1.6340988547706933e-01 0.0000000000000000e+00  5.0812639999504264e-02 -1.2696820252893837e-01 0.0000000000000000e+00  5.1556122816076633e-02 -9.3595020185334998e-02 0.0000000000000000e+00  -2.0311409133536202e-02 -7.7460942861242235e-02 0.0000000000000000e+00  -6.0683911405523833e-03 -1.0303573967067792e-01 0.0000000000000000e+00  3.1980604520027565e-02 -1.4181749115555864e-01 0.0000000000000000e+00  -4.2570868591344495e-03 -1.5219179103470043e-01 0.0000000000000000e+00  3.2254309752922462e-02 -1.7997356741136464e-01 0.0000000000000000e+00  1.0692601569806387e-02 -1.7241069458487476e-01 0.0000000000000000e+00  -2.0288958711446252e-02 -1.8633861296285045e-01 0.0000000000000000e+00  2.9166806052169127e-02 -1.7267144246906196e-01 0.0000000000000000e+00  -2.1137999581689559e-02 -1.7477922927873032e-01 0.0000000000000000e+00  2.5592977986273274e-02 -1.7397929939048334e-01 0.0000000000000000e+00  -2.0613230742222047e-02 -1.7217455656131248e-01 0.0000000000000000e+00  2.0689266922213539e-02 -1.6315852501329248e-01 0.0000000000000000e+00  -2.0389871695686144e-02 -1.5678220823496292e-01 0.0000000000000000e+00  1.9139893833855445e-02 -1.4585667498031951e-01 0.0000000000000000e+00  -2.0926242740096131e-02 -1.4151818604579020e-01 0.0000000000000000e+00  1.5480987880405930e-02 -1.3664666468659545e-01 0.0000000000000000e+00  -1.9118696936830448e-02 -1.3360411818184303e-01 0.0000000000000000e+00  1.3242892789593586e-02 -1.2682579548709685e-01 0.0000000000000000e+00  -1.8336198001380099e-02 -1.2115815456878390e-01 0.0000000000000000e+00  1.2176258917487266e-02 -1.1267201081902166e-01 0.0000000000000000e+00  -1.7333963326712165e-02 -1.0977485915622619e-01 0.0000000000000000e+00  1.1378882524248027e-02 -1.0794425667262735e-01 0.0000000000000000e+00  -1.5505994699521851e-02 -1.0481514000182560e-01 0.0000000000000000e+00  1.1747004641600325e-02 -1.0774983010501066e-01 0.0000000000000000e+00  -5.6154875579576997e-03 -1.0373875391637365e-01 0.0000000000000000e+00  -1.4075935533970432e-02 -1.0512106260680401e-01 0.0000000000000000e+00  2.9134815347850980e-03 -9.8928770919272629e-02 0.0000000000000000e+00  -1.2582447530422199e-02 -1.0546278681526174e-01 0.0000000000000000e+00  4.5730764341268826e-03 -1.1006578258386056e-01 0.0000000000000000e+00  -1.1845864886274706e-02 -1.1223509367263686e-01 0.0000000000000000e+00  4.7391476029591418e-03 -1.1409396316160499e-01 0.0000000000000000e+00  -1.1037404259673811e-02 -1.1094286552155037e-01 0.0000000000000000e+00  6.1607967783483117e-03 -1.1872211708766464e-01 0.0000000000000000e+00  9.9536855029272648e-05 -1.2340975659589697e-01 0.0000000000000000e+00  -2.7377064465877562e-02 -1.3279100073309144e-01 0.0000000000000000e+00  7.0250649446316352e-03 -1.2756933617227842e-01 0.0000000000000000e+00  -2.9071620638642978e-02 -1.3060164003588354e-01 0.0000000000000000e+00  6.2103732589952991e-03 -1.2873329235017314e-01 0.0000000000000000e+00  -3.0849501567103210e-02 -1.2299007598689178e-01 0.0000000000000000e+00  4.5058104301245287e-03 -1.2150585339413243e-01 0.0000000000000000e+00  -2.3273672850791651e-02 -1.0824288137763817e-01 0.0000000000000000e+00  -2.7159360675774829e-02 -9.2133197377903861e-02 0.0000000000000000e+00  -2.1652932040604502e-02 -4.6212925835011243e-02 0.0000000000000000e+00  -2.7738713499043725e-02 -1.8657817954019062e-02 0.0000000000000000e+00  -4.1304595398749311e-02 4.9809225907364800e-02 0.0000000000000000e+00  -5.4507497024057376e-02 1.2209640928411682e-01 0.0000000000000000e+00  -7.0211567684048085e-02 1.7701767259219772e-01 0.0000000000000000e+00  -2.2597664928888928e-03 -7.0487707712272751e-02 0.0000000000000000e+00  -4.5008793027206196e-03 8.9570817589256377e-02 0.0000000000000000e+00  -1.4660688317964345e-03 1.2597825457395304e-01 0.0000000000000000e+00  5.9100584543237255e-03 1.4777299755803541e-01 0.0000000000000000e+00  -1.1380528228003778e-03 -1.3768564213411936e-02 0.0000000000000000e+00  3.4228832008046430e-04 1.4514676782383210e-01 0.0000000000000000e+00  1.5485957031000422e-03 4.6792022614709258e-02 0.0000000000000000e+00  2.8958779751964587e-04 1.3540593430509959e-01 0.0000000000000000e+00  3.2453647312779797e-03 9.7532788416030747e-02 0.0000000000000000e+00  5.8736686217637107e-04 1.0196391558461249e-01 0.0000000000000000e+00  -1.7312432317156694e-03 1.2648333178712864e-01 0.0000000000000000e+00  2.8372903059363714e-03 9.1683797537159537e-02 0.0000000000000000e+00  -4.3235064156790033e-04 1.0579397037473021e-01 0.0000000000000000e+00  -2.6112283934355152e-03 9.7592209622019518e-02 0.0000000000000000e+00  4.1209305354246891e-05 8.7059781834210440e-02 0.0000000000000000e+00  -7.9365880599391412e-04 9.7618216569162905e-02 0.0000000000000000e+00  5.3256995597270322e-04 1.1640148228767970e-01 0.0000000000000000e+00  -1.4931854178274328e-03 8.4221752902206695e-02 0.0000000000000000e+00  6.7985155765260411e-05 9.0006962898838125e-02 0.0000000000000000e+00  -7.1887388779000327e-04 8.0893606525673109e-02 0.0000000000000000e+00  -2.6337110024678445e-03 8.4742713622198665e-02 0.0000000000000000e+00  1.1799611948306371e-03 6.7651320831011247e-02 0.0000000000000000e+00  -5.4043495145262579e-04 7.8348630517008466e-02 0.0000000000000000e+00  -1.5269208910921928e-03 1.2412858536960376e-01 0.0000000000000000e+00  1.1398065138267957e-03 7.0492630121994859e-02 0.0000000000000000e+00  9.4917084280623180e-03 9.4561453267765466e-02 0.0000000000000000e+00  -2.5741929535054341e-02 -4.8157413882419391e-02 0.0000000000000000e+00  -3.6090271688642849e-03 9.6510903096406545e-02 0.0000000000000000e+00  -5.6405809205726382e-03 1.0510224407527048e-01 0.0000000000000000e+00  1.8076553073201027e-02 2.7442482739744461e-02 0.0000000000000000e+00  -3.9851627432549112e-03 7.1256201248396822e-02 0.0000000000000000e+00  -3.1142915962589571e-03 7.5918517936783850e-02 0.0000000000000000e+00  -1.8210328794771185e-03 8.9260758989067240e-02 0.0000000000000000e+00  -4.8717079563021098e-03 6.2504041169523669e-02 0.0000000000000000e+00  -8.1843378941426576e-04 6.9065049879040954e-02 0.0000000000000000e+00  -1.2150190376444712e-03 6.8975845931839461e-02 0.0000000000000000e+00  -1.5291860156805880e-03 6.1083728820425565e-02 0.0000000000000000e+00  -1.3040895258530280e-03 6.6169578976521898e-02 0.0000000000000000e+00  -2.6840581756064070e-03 8.6789686285275405e-02 0.0000000000000000e+00  1.0336267642466553e-03 6.4182084137960185e-02 0.0000000000000000e+00  6.7897487104236600e-04 5.8920548540933766e-02 0.0000000000000000e+00  -1.7071050618726939e-02 -8.9767114048918739e-02 0.0000000000000000e+00  1.5541828302736614e-02 -8.6732763101642824e-02 0.0000000000000000e+00  -4.1036796948407166e-02 6.2810891642323660e-02 0.0000000000000000e+00  2.2634885722975329e-02 -4.9011102804330152e-02 