<?xml version="1.0"?>
<VTKFile type="UnstructuredGrid"  version="0.1"  >
<UnstructuredGrid>
<Piece  NumberOfPoints="1419" NumberOfCells="2698">
<Points>
<DataArray  type="Float64"  NumberOfComponents="3"  format="ascii">3.711768097250198e-07 -3.119616303474475e-06 0  4.032127601586782e-07 0.4099968618264366 0  2.500000801749391 -4.886241723584583e-06 0  2.500000801749448 0.4099951137583008 0  0.6000009043151647 0.1899949221413258 0  0.6000009903081622 0.2099948755462478 0  0.25 0.2 0  0.1500003829830977 0.1999969029463808 0  0.2489897948556636 0.21 0  0.2489897948556636 0.19 0  0.6000009898864577 0.1999948731143485 0  4.027560150196809e-07 0.380711148605158 0  4.014696400436951e-07 0.3514254372194962 0  3.993688049668169e-07 0.3221397272575698 0  3.9655291275845e-07 0.2928540178246134 0  3.932142500215841e-07 0.2635683082204779 0  3.895127976620057e-07 0.2342825979733642 0  3.856560279137193e-07 0.2049968863796446 0  3.819239177870951e-07 0.1757111735241838 0  3.785907036804778e-07 0.1464254592487592 0  3.757946505729064e-07 0.1171397437941305 0  3.737207749817131e-07 0.08785402755345675 0  3.72262070792177e-07 0.05856831114533369 0  3.714347068721828e-07 0.02928259523795198 0  0.03015480851111752 -3.120258902531662e-06 0  0.06140038992450535 -3.122602450025631e-06 0  0.09377660948278112 -3.127985801727223e-06 0  0.1273243628917874 -3.138766593390208e-06 0  0.1620860519856506 -3.159207335855102e-06 0  0.1981056099701665 -3.199829832161728e-06 0  0.2354285558889342 -3.276649887993251e-06 0  0.2741020414983708 -3.400798646690962e-06 0  0.3141749566608223 -3.575026673318071e-06 0  0.3556979292539647 -3.795137705028028e-06 0  0.3987234334026113 -4.035720638767398e-06 0  0.4433058371088773 -4.269226574064606e-06 0  0.4895014665716676 -4.47604648318994e-06 0  0.5373687109107577 -4.638566788215158e-06 0  0.5869680363334089 -4.750429922056651e-06 0  0.638362109866687 -4.820876546246499e-06 0  0.6916158818943986 -4.857386609150792e-06 0  0.7467966425545314 -4.874511125478279e-06 0  0.803974137860637 -4.882191024164072e-06 0  0.8632206100284622 -4.885262132580905e-06 0  0.9246109312840731 -4.886295197293978e-06 0  0.9882226810133912 -4.886503243307433e-06 0  1.054136246275192 -4.886503742062074e-06 0  1.12243490168732 -4.886430471959559e-06 0  1.193204978550097 -4.886362811965872e-06 0  1.266535891440194 -4.886314380172817e-06 0  1.34252031769017 -4.886283876447814e-06 0  1.421254250195455 -4.88626533267066e-06 0  1.502837190825283 -4.886254281016688e-06 0  1.587372241492497 -4.886248274831358e-06 0  1.674966220518735 -4.886245078482215e-06 0  1.765729803570993 -4.886243373580708e-06 0  1.859777710627536 -4.886242534293014e-06 0  1.957228779235569 -4.886242093934238e-06 0  2.058206131618929 -4.886241893381242e-06 0  2.162837392939181 -4.886241791015277e-06 0  2.271254759040197 -4.886241747634812e-06 0  2.383595248552802 -4.886241729068866e-06 0  2.500000801749398 0.1024951137580411 0  2.500000801749421 0.2049951137577627 0  2.500000801749442 0.3074951137580156 0  2.383595248553117 0.4099951137583062 0  2.27125475904082 0.4099951137583255 0  2.162837392940213 0.4099951137583708 0  2.058206131620623 0.4099951137584684 0  1.957228779238388 0.409995113758667 0  1.859777710632669 0.4099951137591294 0  1.76572980358027 0.4099951137599682 0  1.674966220536463 0.4099951137617528 0  1.587372241525692 0.4099951137649867 0  1.502837190887685 0.4099951137711794 0  1.421254250313084 0.409995113783246 0  1.342520317901689 0.4099951138040352 0  1.266535891813071 0.4099951138411509 0  1.193204979212087 0.4099951139142623 0  1.122434902837132 0.4099951140525455 0  1.054136248180569 0.4099951142987298 0  0.9882226841989673 0.4099951148392644 0  0.9246109364101127 0.4099951159186662 0  0.8632206182671615 0.4099951181761275 0  0.8039741507581565 0.4099951230623997 0  0.7467966621944857 0.4099951334715194 0  0.6916159103788042 0.4099951546742018 0  0.6383621488565228 0.4099951971914782 0  0.5869680873392989 0.4099952711039181 0  0.537368772081626 0.4099953853416347 0  0.4895015351482525 0.4099955466098948 0  0.4433059116483287 0.409995745282385 0  0.3987235122731109 0.409995966627053 0  0.3556980102719196 0.4099961917147606 0  0.3141750374534152 0.4099963978624961 0  0.2741021177144428 0.4099965660953857 0  0.2354286255623539 0.4099966854466435 0  0.1981056713385106 0.4099967633289788 0  0.1620861047253037 0.4099968089135624 0  0.1273244080485408 0.4099968343770372 0  0.09377664868366141 0.4099968491041679 0  0.06140042505133847 0.4099968568042748 0  0.03015484123510157 0.4099968608200676 0  0.2497468076502589 0.2050254481002335 0  0.2497468076502614 0.1949745518997913 0  0.2469966713030946 0.182930250794947 0  0.2439895817325727 0.1762296438043817 0  0.240033462119268 0.1700420183272468 0  0.2352136709976607 0.1645007578790467 0  0.2296341952502094 0.1597253460601843 0  0.2234154062951806 0.1558187855231514 0  0.2166914671932766 0.1528653399811834 0  0.2096074382202222 0.1509287166526739 0  0.2023161483843539 0.1500506852295916 0  0.1949748967795014 0.1502501865617505 0  0.18774206109683 0.1515229110691367 0  0.1807736794409114 0.1538414000510937 0  0.1742200850613847 0.1571556325575232 0  0.1682226623329686 0.1613941079785581 0  0.1629107973408201 0.1664653856835817 0  0.1583990858935735 0.1722600597792775 0  0.1547848618947737 0.1786531177240258 0  0.1521460969938484 0.1855066383152573 0  0.1505397189475524 0.192672766343189 0  0.1505397246414693 0.2073210403482525 0  0.1521461084402014 0.2144871708900992 0  0.1547848789620779 0.2213406958333057 0  0.1583991086676727 0.2277337605140329 0  0.1629108257171088 0.2335284441620285 0  0.1682226963985766 0.2385997356380719 0  0.1742201246789403 0.2428382295680202 0  0.1807737247273251 0.2461524877260972 0  0.1877421119243022 0.2484710118988879 0  0.1949749532040296 0.249743784808457 0  0.2023162103386464 0.249943349954298 0  0.2096075058548067 0.2490654072612563 0  0.216691540186375 0.2471289001973574 0  0.2234154845114292 0.2441756160149446 0  0.2296342787456413 0.2402692726023803 0  0.2352137588352568 0.2354941643283342 0  0.2400335531446782 0.2299533228045721 0  0.2439896724245186 0.2237663443754572 0  0.2469967504153346 0.2170668168430574 0  0.2564583288065765 0.2099986002062314 0  0.2639267044609911 0.2099981311688177 0  0.2713950902172076 0.2099978239366658 0  0.2788634210957269 0.2099975726151411 0  0.286331748502237 0.2099973583247312 0  0.2938000547058123 0.2099971784152229 0  0.3012683677408276 0.2099970218629647 0  0.308736671228814 0.2099968706013911 0  0.316204976603927 0.2099967309765136 0  0.3236732769416386 0.2099966012895823 0  0.3311415835320129 0.2099964810122014 0  0.3386098818918405 0.2099963690506255 0  0.3460781888258117 0.2099962593550297 0  0.3535464870130919 0.2099961441197139 0  0.3610147844492099 0.2099960706752432 0  0.3684830871523087 0.2099959895911339 0  0.3759513765946225 0.2099959081242405 0  0.3834196760770323 0.209995827990953 0  0.3908879621629424 0.2099957525810988 0  0.398356260755621 0.2099956779170086 0  0.4058245446981214 0.2099956113325209 0  0.4132928462701521 0.2099955268019205 0  0.4207611250693842 0.209995442447774 0  0.428229450619377 0.2099953983835685 0  0.435697795890518 0.2099952836648542 0  0.4431661335374543 0.2099952817772145 0  0.4506344831912426 0.2099952727569579 0  0.4581028041506555 0.2099952268921188 0  0.4655711521842533 0.2099951405741738 0  0.4730394779548057 0.2099950964138716 0  0.4805078235252826 0.2099951071792131 0  0.4879761394936066 0.2099950762953415 0  0.4954444760100105 0.2099949946378665 0  0.5029127901112481 0.2099949522881968 0  0.5103811271620934 0.2099949669823553 0  0.517849442386068 0.2099949259180693 0  0.5253177776523396 0.2099948802612501 0  0.5327861024011442 0.2099948711473997 0  0.5402544628012649 0.2099948307364204 0  0.5477228142322192 0.2099947372128467 0  0.5551911784852631 0.2099947595176731 0  0.5626595336649654 0.2099947554637597 0  0.5701278239159882 0.2099947929418509 0  0.5775961307301288 0.2099948328768058 0  0.5850644246870765 0.2099948229798168 0  0.5925327316515683 0.2099948010956416 0  0.600001022393198 0.2049948577034073 0  0.600000937382615 0.1949948941820873 0  0.5925326043022968 0.1899949086462153 0  0.5850643053688162 0.1899948728937778 0  0.5775959764966352 0.1899948405224416 0  0.5701276660495529 0.1899948099694265 0  0.5626593445979072 0.189994764684478 0  0.555190999161517 0.1899947806777107 0  0.5477226745660465 0.1899947849194451 0  0.5402543162216911 0.1899948022127196 0  0.5327859953768471 0.1899948343435727 0  0.525317660972171 0.1899948679567304 0  0.5178493500012739 0.1899948951677124 0  0.5103810246694307 0.1899949186257615 0  0.5029127113737276 0.1899949436895335 0  0.4954443699305436 0.189994977542236 0  0.4879760588751644 0.1899950171954104 0  0.4805077391577269 0.1899950525539485 0  0.4730394225924883 0.1899950855150362 0  0.4655710748156492 0.1899951251602605 0  0.4581027603108014 0.189995172473454 0  0.450634441393693 0.1899952159995472 0  0.4431661264447313 0.1899952567233254 0  0.4356977748389863 0.1899953078519495 0  0.4282294558726316 0.1899953680723806 0  0.4207611296531998 0.1899954173855713 0  0.4132928151398677 0.1899955116948224 0  0.4058245139128565 0.1899955969372857 0  0.3983562005084936 0.1899956773389954 0  0.390887898568052 0.1899957577366503 0  0.3834195850652921 0.1899958378567747 0  0.3759512817266172 0.1899959192694786 0  0.3684829701440031 0.1899960026527212 0  0.3610146685650626 0.1899960842233822 0  0.353546357219546 0.1899961615343507 0  0.3460780461540554 0.189996274227221 0  0.3386097423381962 0.1899963849719898 0  0.3311414324459254 0.1899964985539477 0  0.3236731313000298 0.1899966181836576 0  0.3162048270860849 0.189996746545645 0  0.3087365270965082 0.1899968847442028 0  0.3012682263864478 0.1899970376503002 0  0.2937999213868742 0.1899971984230389 0  0.2863316056418048 0.1899973750429644 0  0.278863292652465 0.1899975652565042 0  0.2713949294525377 0.1899978306156136 0  0.2639265653299005 0.1899982283644898 0  0.2564582074233789 0.1899986201
[...]
<PointData  Vectors="f_30-0"> 
<DataArray  type="Float64"  Name="f_30-0"  NumberOfComponents="3" format="ascii">0.0000000000000000e+00 0.0000000000000000e+00 0.0000000000000000e+00  0.0000000000000000e+00 0.0000000000000000e+00 0.0000000000000000e+00  0.0000000000000000e+00 0.0000000000000000e+00 0.0000000000000000e+00  0.0000000000000000e+00 0.0000000000000000e+00 0.0000000000000000e+00  1.4480416473693342e-01 -2.9433504671169120e-01 0.0000000000000000e+00  1.8660686175138851e-02 -3.4160386126959769e-01 0.0000000000000000e+00  0.0000000000000000e+00 0.0000000000000000e+00 0.0000000000000000e+00  0.0000000000000000e+00 0.0000000000000000e+00 0.0000000000000000e+00  0.0000000000000000e+00 0.0000000000000000e+00 0.0000000000000000e+00  0.0000000000000000e+00 0.0000000000000000e+00 0.0000000000000000e+00  6.6125913439072415e-01 -3.9635081738573774e-01 0.0000000000000000e+00  0.0000000000000000e+00 0.0000000000000000e+00 0.0000000000000000e+00  0.0000000000000000e+00 0.0000000000000000e+00 0.0000000000000000e+00  0.0000000000000000e+00 0.0000000000000000e+00 0.0000000000000000e+00  0.0000000000000000e+00 0.0000000000000000e+00 0.0000000000000000e+00  0.0000000000000000e+00 0.0000000000000000e+00 0.0000000000000000e+00  0.0000000000000000e+00 0.0000000000000000e+00 0.0000000000000000e+00  0.0000000000000000e+00 0.0000000000000000e+00 0.0000000000000000e+00  0.0000000000000000e+00 0.0000000000000000e+00 0.0000000000000000e+00  0.0000000000000000e+00 0.0000000000000000e+00 0.0000000000000000e+00  0.0000000000000000e+00 0.0000000000000000e+00 0.0000000000000000e+00  0.0000000000000000e+00 0.0000000000000000e+00 0.0000000000000000e+00  0.0000000000000000e+00 0.0000000000000000e+00 0.0000000000000000e+00  0.0000000000000000e+00 0.0000000000000000e+00 0.0000000000000000e+00  0.0000000000000000e+00 0.0000000000000000e+00 0.0000000000000000e+00  0.0000000000000000e+00 0.0000000000000000e+00 0.0000000000000000e+00  0.0000000000000000e+00 0.0000000000000000e+00 0.0000000000000000e+00  0.0000000000000000e+00 0.0000000000000000e+00 0.0000000000000000e+00  0.0000000000000000e+00 0.0000000000000000e+00 0.0000000000000000e+00  0.0000000000000000e+00 0.0000000000000000e+00 0.0000000000000000e+00  0.0000000000000000e+00 0.0000000000000000e+00 0.0000000000000000e+00  0.0000000000000000e+00 0.0000000000000000e+00 0.0000000000000000e+00  0.0000000000000000e+00 0.0000000000000000e+00 0.0000000000000000e+00  0.0000000000000000e+00 0.0000000000000000e+00 0.0000000000000000e+00  0.0000000000000000e+00 0.0000000000000000e+00 0.0000000000000000e+00  0.0000000000000000e+00 0.0000000000000000e+00 0.0000000000000000e+00  0.0000000000000000e+00 0.0000000000000000e+00 0.0000000000000000e+00  0.0000000000000000e+00 0.0000000000000000e+00 0.0000000000000000e+00  0.0000000000000000e+00 0.0000000000000000e+00 0.0000000000000000e+00  0.0000000000000000e+00 0.0000000000000000e+00 0.0000000000000000e+00  0.0000000000000000e+00 0.0000000000000000e+00 0.0000000000000000e+00  0.0000000000000000e+00 0.0000000000000000e+00 0.0000000000000000e+00  0.0000000000000000e+00 0.0000000000000000e+00 0.0000000000000000e+00  0.0000000000000000e+00 0.0000000000000000e+00 0.0000000000000000e+00  0.0000000000000000e+00 0.0000000000000000e+00 0.0000000000000000e+00  0.0000000000000000e+00 0.0000000000000000e+00 0.0000000000000000e+00  0.0000000000000000e+00 0.0000000000000000e+00 0.0000000000000000e+00  0.0000000000000000e+00 0.0000000000000000e+00 0.0000000000000000e+00  0.0000000000000000e+00 0.0000000000000000e+00 0.0000000000000000e+00  0.0000000000000000e+00 0.0000000000000000e+00 0.0000000000000000e+00  0.0000000000000000e+00 0.0000000000000000e+00 0.0000000000000000e+00  0.0000000000000000e+00 0.0000000000000000e+00 0.0000000000000000e+00  0.0000000000000000e+00 0.0000000000000000e+00 0.0000000000000000e+00  0.0000000000000000e+00 0.0000000000000000e+00 0.0000000000000000e+00  0.0000000000000000e+00 0.0000000000000000e+00 0.0000000000000000e+00  0.0000000000000000e+00 0.0000000000000000e+00 0.0000000000000000e+00  0.0000000000000000e+00 0.0000000000000000e+00 0.0000000000000000e+00  0.0000000000000000e+00 0.0000000000000000e+00 0.0000000000000000e+00  0.0000000000000000e+00 0.0000000000000000e+00 0.0000000000000000e+00  0.0000000000000000e+00 0.0000000000000000e+00 0.0000000000000000e+00  0.0000000000000000e+00 0.0000000000000000e+00 0.0000000000000000e+00  0.0000000000000000e+00 0.0000000000000000e+00 0.0000000000000000e+00  1.3621924980389272e-08 5.0315236745775141e-09 0.0000000000000000e+00  -2.6605207070391968e-10 7.4477302451941493e-09 0.0000000000000000e+00  -1.4274111238476544e-08 5.6068946704213941e-09 0.0000000000000000e+00  0.0000000000000000e+00 0.0000000000000000e+00 0.0000000000000000e+00  0.0000000000000000e+00 0.0000000000000000e+00 0.0000000000000000e+00  0.0000000000000000e+00 0.0000000000000000e+00 0.0000000000000000e+00  0.0000000000000000e+00 0.0000000000000000e+00 0.0000000000000000e+00  0.0000000000000000e+00 0.0000000000000000e+00 0.0000000000000000e+00  0.0000000000000000e+00 0.0000000000000000e+00 0.0000000000000000e+00  0.0000000000000000e+00 0.0000000000000000e+00 0.0000000000000000e+00  0.0000000000000000e+00 0.0000000000000000e+00 0.0000000000000000e+00  0.0000000000000000e+00 0.0000000000000000e+00 0.0000000000000000e+00  0.0000000000000000e+00 0.0000000000000000e+00 0.0000000000000000e+00  0.0000000000000000e+00 0.0000000000000000e+00 0.0000000000000000e+00  0.0000000000000000e+00 0.0000000000000000e+00 0.0000000000000000e+00  0.0000000000000000e+00 0.0000000000000000e+00 0.0000000000000000e+00  0.0000000000000000e+00 0.0000000000000000e+00 0.0000000000000000e+00  0.0000000000000000e+00 0.0000000000000000e+00 0.0000000000000000e+00  0.0000000000000000e+00 0.0000000000000000e+00 0.0000000000000000e+00  0.0000000000000000e+00 0.0000000000000000e+00 0.0000000000000000e+00  0.0000000000000000e+00 0.0000000000000000e+00 0.0000000000000000e+00  0.0000000000000000e+00 0.0000000000000000e+00 0.0000000000000000e+00  0.0000000000000000e+00 0.0000000000000000e+00 0.0000000000000000e+00  0.0000000000000000e+00 0.0000000000000000e+00 0.0000000000000000e+00  0.0000000000000000e+00 0.0000000000000000e+00 0.0000000000000000e+00  0.0000000000000000e+00 0.0000000000000000e+00 0.0000000000000000e+00  0.0000000000000000e+00 0.0000000000000000e+00 0.0000000000000000e+00  0.0000000000000000e+00 0.0000000000000000e+00 0.0000000000000000e+00  0.0000000000000000e+00 0.0000000000000000e+00 0.0000000000000000e+00  0.0000000000000000e+00 0.0000000000000000e+00 0.0000000000000000e+00  0.0000000000000000e+00 0.0000000000000000e+00 0.0000000000000000e+00  0.0000000000000000e+00 0.0000000000000000e+00 0.0000000000000000e+00  0.0000000000000000e+00 0.0000000000000000e+00 0.0000000000000000e+00  0.0000000000000000e+00 0.0000000000000000e+00 0.0000000000000000e+00  0.0000000000000000e+00 0.0000000000000000e+00 0.0000000000000000e+00  0.0000000000000000e+00 0.0000000000000000e+00 0.0000000000000000e+00  0.0000000000000000e+00 0.0000000000000000e+00 0.0000000000000000e+00  0.0000000000000000e+00 0.0000000000000000e+00 0.0000000000000000e+00  0.0000000000000000e+00 0.0000000000000000e+00 0.0000000000000000e+00  0.0000000000000000e+00 0.0000000000000000e+00 0.0000000000000000e+00  0.0000000000000000e+00 0.0000000000000000e+00 0.0000000000000000e+00  0.0000000000000000e+00 0.0000000000000000e+00 0.0000000000000000e+00  0.0000000000000000e+00 0.0000000000000000e+00 0.0000000000000000e+00  0.0000000000000000e+00 0.0000000000000000e+00 0.0000000000000000e+00  0.0000000000000000e+00 0.0000000000000000e+00 0.0000000000000000e+00  0.0000000000000000e+00 0.0000000000000000e+00 0.0000000000000000e+00  0.0000000000000000e+00 0.0000000000000000e+00 0.0000000000000000e+00  0.0000000000000000e+00 0.0000000000000000e+00 0.0000000000000000e+00  0.0000000000000000e+00 0.0000000000000000e+00 0.0000000000000000e+00  0.0000000000000000e+00 0.0000000000000000e+00 0.0000000000000000e+00  0.0000000000000000e+00 0.0000000000000000e+00 0.0000000000000000e+00  0.0000000000000000e+00 0.0000000000000000e+00 0.0000000000000000e+00  0.0000000000000000e+00 0.0000000000000000e+00 0.0000000000000000e+00  0.0000000000000000e+00 0.0000000000000000e+00 0.0000000000000000e+00  0.0000000000000000e+00 0.0000000000000000e+00 0.0000000000000000e+00  0.0000000000000000e+00 0.0000000000000000e+00 0.0000000000000000e+00  0.0000000000000000e+00 0.0000000000000000e+00 0.0000000000000000e+00  0.0000000000000000e+00 0.0000000000000000e+00 0.0000000000000000e+00  0.0000000000000000e+00 0.0000000000000000e+00 0.0000000000000000e+00  0.0000000000000000e+00 0.0000000000000000e+00 0.0000000000000000e+00  0.0000000000000000e+00 0.0000000000000000e+00 0.0000000000000000e+00  0.0000000000000000e+00 0.0000000000000000e+00 0.0000000000000000e+00  0.0000000000000000e+00 0.0000000000000000e+00 0.0000000000000000e+00  0.0000000000000000e+00 0.0000000000000000e+00 0.0000000000000000e+00  0.0000000000000000e+00 0.0000000000000000e+00 0.0000000000000000e+00  0.0000000000000000e+00 0.0000000000000000e+00 0.0000000000000000e+00  0.0000000000000000e+00 0.0000000000000000e+00 0.0000000000000000e+00  0.0000000000000000e+00 0.0000000000000000e+00 0.0000000000000000e+00  0.0000000000000000e+00 0.0000000000000000e+00 0.0000000000000000e+00  0.0000000000000000e+00 0.0000000000000000e+00 0.0000000000000000e+00  0.0000000000000000e+00 0.0000000000000000e+00 0.0000000000000000e+00  0.0000000000000000e+00 0.0000000000000000e+00 0.0000000000000000e+00  0.0000000000000000e+00 0.0000000000000000e+00 0.0000000000000000e+00  0.0000000000000000e+00 0.0000000000000000e+00 0.0000000000000000e+00  0.0000000000000000e+00 0.0000000000000000e+00 0.0000000000000000e+00  0.0000000000000000e+00 0.0000000000000000e+00 0.0000000000000000e+00  0.0000000000000000e+00 0.0000000000000000e+00 0.0000000000000000e+00  0.0000000000000000e+00 0.0000000000000000e+00 0.0000000000000000e+00  0.0000000000000000e+00 0.0000000000000000e+00 0.0000000000000000e+00  0.0000000000000000e+00 0.0000000000000000e+00 0.0000000000000000e+00  0.0000000000000000e+00 0.0000000000000000e+00 0.0000000000000000e+00  -1.9806840657356907e-03 1.1641821212315062e+00 0.0000000000000000e+00  -2.6018009534619236e-02 1.1193723981380879e+00 0.0000000000000000e+00  4.6873260719543797e-01 8.7300551540573623e-01 0.0000000000000000e+00  2.1941319540103771e-01 5.2586109273535986e-01 0.0000000000000000e+00  2.7164934269615904e-01 3.4394798910000102e-01 0.0000000000000000e+00  1.1412389597270392e-01 2.1363375935851450e-01 0.0000000000000000e+00  1.3601921643183215e-01 1.1805611980311584e-01 0.0000000000000000e+00  7.6151859638818278e-02 4.4086048755166511e-04 0.0000000000000000e+00  7.8356216351678373e-02 -1.0984224241385145e-01 0.0000000000000000e+00  1.8151502419272648e-02 -1.7182173975381254e-01 0.0000000000000000e+00  5.3443188593782748e-02 -2.6741999027829200e-01 0.0000000000000000e+00  -1.4769950101318985e-02 -2.7769457013041160e-01 0.0000000000000000e+00  6.4227415786849748e-02 -3.7045231087348590e-01 0.0000000000000000e+00  1.4456833742037323e-02 -4.2230656439299513e-01 0.0000000000000000e+00  -1.3141649523737812e-02 -3.9421290945089527e-01 0.0000000000000000e+00  1.7869587654451357e-02 -3.8594220687267694e-01 0.0000000000000000e+00  -5.4644859447689896e-02 -4.0727389362594857e-01 0.0000000000000000e+00  -2.5509353412503034e-02 -4.4810199105653431e-01 0.0000000000000000e+00  -1.1748003573552407e-01 -4.3653394867646828e-01 0.0000000000000000e+00  -1.0202328125787161e-01 -5.4452977639855793e-01 0.0000000000000000e+00  -2.5375137157145095e-01 -3.9783788603696385e-01 0.0000000000000000e+00  -1.2427731935656518e-01 -6.7304550384903838e-01 0.0000000000000000e+00  -4.3907705134791547e-01 -5.2774430107422388e-01 0.0000000000000000e+00  -2.7645967461201570e-01 -4.1312900669639618e-01 0.0000000000000000e+00  -2.6517295693971804e-01 -1.8641239885929928e+00 0.0000000000000000e+00  -2.8285299832656580e-01 -7.8244113454034026e-01 0.0000000000000000e+00  5.9967488206504757e-02 -2.9951546533295625e-01 0.0000000000000000e+00  -1.9659950272739640e-01 -3.4091324413865404e-01 0.0000000000000000e+00  2.0845549876853808e-01 -1.0607801118053986e+00 0.0000000000000000e+00  -2.3563443827029179e-01 -1.1582223222998629e+00 0.0000000000000000e+00  1.6090668959347129e-01 -3.1835273540486042e-01 0.0000000000000000e+00  -7.0953549921620354e-02 -2.3940747701482085e-01 0.0000000000000000e+00  2.8294844257702056e-01 -1.0072964018707486e+00 0.0000000000000000e+00  -2.1883188525143596e-01 -1.1748711220773500e+00 0.0000000000000000e+00  1.2592602499430888e-01 -3.3802769801916155e-01 0.0000000000000000e+00  6.8705293457893644e-03 -6.5478706540040166e-01 0.0000000000000000e+00  -5.1766586412117354e-03 -9.3486363991874111e-01 0.0000000000000000e+00  -2.8077607778360902e-01 -4.2278653457718179e-01 0.0000000000000000e+00  2.1472616999835512e-01 -7.2325554184316976e-01 0.0000000000000000e+00  3.9596820845986153e-01 -2.1709603049296500e+00 0.0000000000000000e+00  7.7155691143455912e-02 -1.2034309953937670e+00 0.0000000000000000e+00  4.6950729910138905e-01 -7.7648174129394132e-01 0.0000000000000000e+00  3.5904107850727263e-01 -8.1438189873996669e-01 0.0000000000000000e+00  4.0359850734535951e-01 -3.3729817490386982e-01 0.0000000000000000e+00  4.5936237675209601e-01 -8.9615080040501349e-01 0.0000000000000000e+00  1.1772685373292828e+00 -2.0995170762846280e+00 0.0000000000000000e+00  1.2447411663560937e+00 -9.8977074061182913e-01 0.0000000000000000e+00  2.8864935639147915e-01 -4.5365296744421613e-01 0.0000000000000000e+00  3.1279917294818871e-01 -5.0484347375382688e-01 0.0000000000000000e+00  4.1581492004883280e-01 -5.5161512473061947e-01 0.0000000000000000e+00  1.4351033780399161e-01 -5.8967071241944280e-01 0.0000000000000000e+00  3.3017955809950861e-01 -7.5132185778485006e-01 0.0000000000000000e+00  2.2756347588724241e-01 -7.5724878764319103e-01 0.0000000000000000e+00  1.0230311907505180e-01 -9.5212656068901114e-01 0.0000000000000000e+00  2.0323142432280961e-01 -9.8592865874442459e-01 0.0000000000000000e+00  -2.3764990445189890e-01 -8.8003205659542627e-01 0.0000000000000000e+00  1.3839945682713082e-02 -7.1864122465350300e-01 0.0000000000000000e+00  -1.4016429959503524e-01 -6.7203387177778906e-01 0.0000000000000000e+00  8.8656431276654013e-02 -6.3498436547161063e-01 0.0000000000000000e+00  -7.8279852495291239e-03 -6.4542581432783763e-01 0.0000000000000000e+00  1.4188666093663727e-01 -7.1630807745118064e-01 0.0000000000000000e+00  -1.7940738370409079e-01 -6.9093211204948835e-01 0.0000000000000000e+00  2.1353490161428349e-02 -5.8040700913581789e-01 0.0000000000000000e+00  6.5545759760721658e-03 -5.9516512207166550e-01 0.0000000000000000e+00  1.6352774425409405e-01 -7.1361415040463416e-01 0.0000000000000000e+00  -2.0684210879713286e-01 -7.1134774622885022e-01 0.0000000000000000e+00  -3.5634138691082964e-02 -5.9520002790879256e-01 0.0000000000000000e+00  -3.6848762552362260e-02 -5.9560107780757687e-01 0.0000000000000000e+00  1.7770643572183295e-01 -7.4771385036815763e-01 0.0000000000000000e+00  -2.3529554954964213e-01 -7.9801200014238360e-01 0.0000000000000000e+00  -1.5226459001909731e-01 -6.9445831286863668e-01 0.0000000000000000e+00  -1.3931231878641170e-01 -6.2436712307522568e-01 0.0000000000000000e+00  -2.1592868295796594e-01 -6.2058259948530170e-01 0.0000000000000000e+00  -9.6643428352613733e-02 -5.2114486745708533e-01 0.0000000000000000e+00  -1.6813381756007981e-01 -5.0034421871644297e-01 0.0000000000000000e+00  -5.1664855808468718e-02 -4.7212850901369185e-01 0.0000000000000000e+00  -1.3748295256103285e-01 -4.5648676330538762e-01 0.0000000000000000e+00  -5.1413990051671674e-02 -4.2970891957852303e-01 0.0000000000000000e+00  -1.1697528123422421e-01 -4.0338083064046359e-01 0.0000000000000000e+00  -3.3578006567606192e-02 -3.9423404765104392e-01 0.0000000000000000e+00  -5.4451101408433164e-02 -3.7686376170119118e-01 0.0000000000000000e+00  -1.3405338962649777e-01 -3.7404390769244816e-01 0.0000000000000000e+00  -5.0651675766287943e-02 -3.0259373052368466e-01 0.0000000000000000e+00  -1.2679499719635356e-01 -2.6355217239508177e-01 0.0000000000000000e+00  -5.4843956769902107e-02 -1.9228152818539834e-01 0.0000000000000000e+00  -7.6399922958695160e-02 -1.3698785021305307e-01 0.0000000000000000e+00  -2.5367414232728196e-02 -3.5286598472380172e-02 0.0000000000000000e+00  -3.6596626437043069e-02 7.5184333030868425e-02 0.0000000000000000e+00  6.3303778022807969e-02 2.4889713635908503e-01 0.0000000000000000e+00  8.7807247988968107e-02 3.7674838610003042e-01 0.0000000000000000e+00  3.3311347042381573e-01 1.4115923777203970e-01 0.0000000000000000e+00  -7.1594026242764425e-02 7.5449616818570142e-01 0.0000000000000000e+00  -7.0068569820329896e-01 2.5239922929091132e+00 0.0000000000000000e+00  6.7209051013671015e-02 1.0874508474138274e+00 0.0000000000000000e+00  -5.3824779415691450e-02 -9.7778979350345463e-01 0.0000000000000000e+00  2.9824321680493068e-03 5.6196467864930943e-01 0.0000000000000000e+00  -2.2593778100504492e-02 4.7972273154318623e-01 0.0000000000000000e+00  5.1505292775671972e-02 1.0596106223812045e+00 0.0000000000000000e+00  -2.3055018209504957e-01 -5.4205617166235598e-01 0.0000000000000000e+00  1.5043103950632164e-01 5.7805542665643084e-01 0.0000000000000000e+00  8.9914844363536778e-02 -2.8125626370120593e-01 0.0000000000000000e+00  3.8682694211668540e-02 5.9909932034915125e-01 0.0000000000000000e+00  5.5743159447180371e-03 5.7710346920680743e-02 0.0000000000000000e+00  2.5997532010153331e-03 1.7508715205495279e-01 0.0000000000000000e+00  -2.1611065950596228e-01 5.7369081605190053e-01 0.0000000000000000e+00  5.4336076131803000e-04 3.2242869140493075e-01 0.0000000000000000e+00  -2.7998028417759835e-01 5.5711622561318941e-01 0.0000000000000000e+00  -1.2990689371647258e-03 2.4134930958918613e-01 0.0000000000000000e+00  -1.3939968381646578e-02 3.4837218977645090e-01 0.0000000000000000e+00  2.6696193327091017e-01 5.5570319509596089e-01 0.0000000000000000e+00  2.7743374156061112e-01 5.2343157731654100e-01 0.0000000000000000e+00  -5.0833309612793420e-02 3.9073621212475385e-01 0.0000000000000000e+00  -2.9454976706974312e-01 5.1508974046891476e-01 0.0000000000000000e+00  4.1690439572892469e-03 4.2733950213642968e-01 0.0000000000000000e+00  1.3761797749679436e-01 7.4892308580193312e-01 0.0000000000000000e+00  1.3782973979096539e-02 3.6159194333276662e-01 0.0000000000000000e+00  3.1173953843483611e-03 2.4882229615177504e-01 0.0000000000000000e+00  -1.6321149901852247e-01 4.3689835974963659e-01 0.0000000000000000e+00  -1.5837200480863296e-02 -5.0941376809016767e-02 0.0000000000000000e+00  -3.7838168676354526e-02 3.1561456052197001e-01 0.0000000000000000e+00  -3.9462244477566105e-01 -8.9610093447602179e-01 0.0000000000000000e+00  4.0353934576056225e-02 3.6012997412853359e-01 0.0000000000000000e+00  -1.2233875296009349e-02 6.7038690058913808e-01 0.0000000000000000e+00  -3.0714178723801968e-02 -2.3432553681132245e-01 0.0000000000000000e+00  3.1495292469726960e-02 9.6564912351838020e-02 0.0000000000000000e+00  -1.9826087006055822e-02 2.6387885990586818e-01 0.0000000000000000e+00  -5.4367556460120446e-02 3.2422376967480449e-01 0.0000000000000000e+00  9.3417609767892564e-03 2.4403179785418555e-01 0.0000000000000000e+00  1.3361496560894463e-02 5.1984933896096930e-01 0.0000000000000000e+00  3.1866325528256682e-02 1.5415532539038271e-01 0.0000000000000000e+00  3.3983476355286743e-02 2.7129572248364103e-01 0.0000000000000000e+00  1.2629528841328499e-02 2.7916545061424558e-01 0.0000000000000000e+00  1.8684577159439709e-02 5.2374127328079656e-01 0.0000000000000000e+00  8.1559070765860345e-02 3.0745059700708427e-01 0.0000000000000000e+00  -1.8011307842641353e-02 5.6077880856180717e-01 0.0000000000000000e+00  -1.2929763962582825e-02 -7.0897085429223294e-01 0.0000000000000000e+00  7.0356817387073112e-01 -4.1581947373579831e-01 0.0000000000000000e+00  -4.4230964866214029e-01 6.9751952067110834e-01 0.0000000000000000e+00  -2.2866304706916366e-02 -8.1141892270227323e-01 0.00000000