<?xml version="1.0"?>
<VTKFile type="UnstructuredGrid"  version="0.1"  >
<UnstructuredGrid>
<Piece  NumberOfPoints="1419" NumberOfCells="2698">
<Points>
<DataArray  type="Float64"  NumberOfComponents="3"  format="ascii">-1.686851531570683e-09 -4.1590238596076e-07 0  2.998121602642681e-09 0.4099995824608444 0  2.500000001862916 -6.0805706092153e-07 0  2.500000001862919 0.4099993919429448 0  0.6000000015642853 0.1899993682514173 0  0.6000000033363835 0.2099993697097144 0  0.25 0.2 0  0.1500000005832972 0.1999995869054184 0  0.2489897948556636 0.21 0  0.2489897948556636 0.19 0  0.6000000027963646 0.199999365501285 0  2.946418608406384e-09 0.380713868291033 0  2.798913900133936e-09 0.3514281543203938 0  2.550055409386854e-09 0.3221424405017068 0  2.198381592698701e-09 0.2928567267331553 0  1.760929267451152e-09 0.2635710129367012 0  1.254044618861808e-09 0.234285299060161 0  6.973716665945664e-10 0.2049995850251765 0  1.368870452788544e-10 0.1757138708456987 0  -3.869012683409981e-10 0.1464281565078332 0  -8.476604963368527e-10 0.1171424420417008 0  -1.209050150379427e-09 0.08785672749589495 0  -1.476711413668757e-09 0.0585710129405831 0  -1.636049893911078e-09 0.02928529845346323 0  0.03015443586345986 -4.159812222455597e-07 0  0.06140001794933694 -4.162665014539869e-07 0  0.09377623854591394 -4.169118744245092e-07 0  0.1273239930864642 -4.181852335150672e-07 0  0.1620856828125357 -4.205672042691245e-07 0  0.1981052394764263 -4.252357308675825e-07 0  0.2354281796436772 -4.339476861064883e-07 0  0.2741016527425354 -4.47827548823812e-07 0  0.3141745470666614 -4.670399350448702e-07 0  0.355697487750851 -4.908994777364772e-07 0  0.3987229499223779 -5.167089076519266e-07 0  0.4433053020483173 -5.417268837312233e-07 0  0.4895008735033209 -5.640528722683035e-07 0  0.5373680595763968 -5.817970117502397e-07 0  0.5869673338962486 -5.940725290877363e-07 0  0.6383613679886239 -6.017257997948151e-07 0  0.6916151147020573 -6.05561107304624e-07 0  0.7467958607758853 -6.072526819280682e-07 0  0.8039733478415934 -6.079378614690185e-07 0  0.8632198155542764 -6.081607353807068e-07 0  0.9246101343906039 -6.081952437677301e-07 0  0.9882218828581401 -6.081682636046775e-07 0  1.054135447363014 -6.081352088736505e-07 0  1.122434102370401 -6.081075632557448e-07 0  1.193204178984058 -6.080874906326223e-07 0  1.266535091731134 -6.08074668737049e-07 0  1.342519517902947 -6.080671151664741e-07 0  1.421253450363349 -6.080626386761325e-07 0  1.502836390967342 -6.080600108244349e-07 0  1.587371441620797 -6.080585950211118e-07 0  1.6749654206398 -6.080578454532639e-07 0  1.765729003688219 -6.080574464485206e-07 0  1.859776910742879 -6.080572502731269e-07 0  1.957227979349923 -6.080571474011191e-07 0  2.058205331732834 -6.080571005671426e-07 0  2.162836593052856 -6.080570766650591e-07 0  2.271253959153776 -6.080570665366017e-07 0  2.383594448666339 -6.080570622019536e-07 0  2.500000001862916 0.1024993919427011 0  2.500000001862916 0.2049993919424161 0  2.500000001862919 0.3074993919426622 0  2.383594448666575 0.4099993919429461 0  2.271253959154237 0.4099993919429505 0  2.162836593053527 0.4099993919429611 0  2.058205331733719 0.4099993919429839 0  1.957227979351039 0.4099993919430303 0  1.859776910744285 0.4099993919431381 0  1.765729003690014 0.4099993919433336 0  1.674965420642236 0.4099993919437493 0  1.587371441624293 0.4099993919445011 0  1.502836390972722 0.4099993919459337 0  1.421253450372186 0.4099993919487032 0  1.342519517917587 0.40999939195341 0  1.266535091755677 0.4099993919616446 0  1.193204179026282 0.4099993919771654 0  1.122434102442423 0.4099993920050306 0  1.054135447481172 0.4099993920516862 0  0.9882218830544304 0.4099993921442738 0  0.9246101347067136 0.4099993923145901 0  0.8632198160593603 0.4099993926411831 0  0.8039733486334966 0.4099993932947021 0  0.7467958619985582 0.4099993946044673 0  0.691615116544865 0.4099993971469068 0  0.6383613707186834 0.409999402051622 0  0.5869673378322919 0.4099994103540668 0  0.5373680650086329 0.4099994229365383 0  0.4895008806404 0.409999440390886 0  0.4433053108720739 0.4099994616203336 0  0.3987229601446826 0.4099994851382987 0  0.3556974988534394 0.4099995091194613 0  0.3141745584112274 0.4099995313162927 0  0.2741016636575926 0.4099995496792576 0  0.2354281896583568 0.409999562861883 0  0.1981052483254523 0.4099995715243754 0  0.1620856904554208 0.4099995766047995 0  0.1273239996572597 0.4099995794357872 0  0.09377624426702992 0.4099995810652831 0  0.06140002307904276 0.4099995819116004 0  0.03015444064917631 0.4099995823511101 0  0.2497468076502589 0.2050254481002335 0  0.2497468076502614 0.1949745518997913 0  0.2469965194687039 0.1829315003281591 0  0.2439893668789689 0.1762313592970721 0  0.2400332080413237 0.1700440168213389 0  0.2352133908106099 0.1645029401152206 0  0.2296338955665026 0.1597276612814933 0  0.2234150917969949 0.155821197312222 0  0.2166911411776146 0.1528678225849996 0  0.2096071032085371 0.1509312507244473 0  0.2023158057904092 0.1500532592288655 0  0.1949745481052614 0.1502527893122311 0  0.1877417071983262 0.1515255357366236 0  0.1807733211473192 0.15384404065767 0  0.1742197228305128 0.1571582853483666 0  0.1682222966480624 0.1613967696736336 0  0.1629104284247516 0.1664680542751397 0  0.1583987140292517 0.1722627334728669 0  0.1547844872005157 0.1786557953500272 0  0.1521457196508396 0.1855093188154716 0  0.1505393390015883 0.1926754489664368 0  0.1505393398636595 0.2073237249360333 0  0.1521457213833957 0.2144898553739038 0  0.154784489785856 0.2213433793366909 0  0.1583987174818101 0.2277364419839182 0  0.1629104327323971 0.2335311222744024 0  0.1682223018295886 0.2386024084526209 0  0.1742197288701018 0.2428408948989277 0  0.1807733280617511 0.2461551425328912 0  0.1877417149905776 0.2484736515010143 0  0.1949745567834207 0.2497464035050811 0  0.2023158153477111 0.2499459409684335 0  0.2096071136676774 0.2490679597852991 0  0.2166911525161376 0.2471314015169129 0  0.2234151040155999 0.2441780458265352 0  0.2296339086151427 0.2402716077690026 0  0.2352134045799417 0.235496365783727 0  0.2400332222825213 0.2299553410161372 0  0.243989380912901 0.2237680815563396 0  0.2469965314731711 0.2170680850132871 0  0.2564581057633332 0.2099997952993319 0  0.2639264102226829 0.2099997246453486 0  0.2713947134833351 0.2099996791244092 0  0.278863016660729 0.2099996453645444 0  0.2863313187904982 0.2099996184029746 0  0.2937996220266436 0.2099995953626583 0  0.3012679238933091 0.2099995742694723 0  0.3087362251072192 0.2099995608928941 0  0.3162045281594498 0.2099995477808538 0  0.3236728291956333 0.2099995355624149 0  0.3311411321621153 0.209999524651444 0  0.3386094330653512 0.2099995146117494 0  0.3460777355943329 0.2099995050101132 0  0.3535460367726023 0.2099994946172877 0  0.3610143381306574 0.2099994887400688 0  0.368482640579562 0.209999481961857 0  0.3759509417369608 0.209999475013905 0  0.3834192442622785 0.2099994683755888 0  0.3908875454607611 0.2099994619675594 0  0.3983558480437752 0.2099994558969538 0  0.4058241492016535 0.2099994497891219 0  0.413292451652973 0.2099994434397582 0  0.4207607529028295 0.2099994359835182 0  0.4282290544102971 0.2099994321343199 0  0.4356973568248786 0.2099994273522976 0  0.4431656582476903 0.2099994221565192 0  0.4506339607366395 0.209999416922824 0  0.4581022620656626 0.2099994117580285 0  0.4655705646126816 0.2099994066586386 0  0.4730388658244157 0.2099994016358689 0  0.480507168448858 0.209999396675281 0  0.487975469656977 0.2099993917477935 0  0.4954437723551904 0.2099993869356967 0  0.5029120733244514 0.2099993823812413 0  0.5103803760826556 0.2099993779824896 0  0.5178486771755983 0.2099993738688128 0  0.5253169805317641 0.2099993698071093 0  0.5327852814286544 0.2099993659370698 0  0.540253584633505 0.2099993624904173 0  0.5477218855296361 0.2099993595676423 0  0.5551901890968803 0.2099993558310142 0  0.5626584903303171 0.2099993503536521 0  0.5701267918402966 0.209999354910812 0  0.577595096357857 0.2099993577606606 0  0.5850633978061859 0.2099993604684716 0  0.5925317014135574 0.2099993652192784 0  0.6000000040220855 0.2049993671568919 0  0.6000000012780821 0.1949993670344989 0  0.592531699396862 0.1899993623284659 0  0.5850633986573021 0.1899993569691408 0  0.5775950951173211 0.1899993534769605 0  0.5701267944739119 0.1899993505916434 0  0.5626584913070577 0.1899993461232931 0  0.5551901876898727 0.1899993510398276 0  0.5477218865642715 0.1899993537893353 0  0.5402535825246298 0.1899993564184972 0  0.5327852814100696 0.189999359523471 0  0.5253169772963876 0.1899993631126966 0  0.5178486756558525 0.1899993671298637 0  0.5103803717330327 0.1899993714628266 0  0.5029120702386841 0.1899993760498176 0  0.4954437665074689 0.189999380814794 0  0.4879754648967372 0.189999385731297 0  0.4805071612390271 0.1899993907984106 0  0.4730388593342697 0.189999396000281 0  0.4655705557889327 0.1899994013572267 0  0.458102254028119 0.1899994068189396 0  0.4506339506622355 0.1899994123437406 0  0.4431656488372291 0.1899994179449632 0  0.4356973454359881 0.1899994236032483 0  0.4282290433472576 0.1899994290615675 0  0.4207607401536031 0.189999433455366 0  0.4132924371864463 0.1899994413873656 0  0.4058241352556077 0.1899994484288004 0  0.3983558322054864 0.1899994549398839 0  0.3908875301821911 0.1899994615656749 0  0.3834192270929533 0.1899994683192971 0  0.3759509250039725 0.1899994752475719 0  0.3684826219192247 0.189999482434295 0  0.3610143199718195 0.1899994892053729 0  0.3535460168616807 0.1899994952684037 0  0.3460777135450839 0.189999505934523 0  0.3386094116096819 0.1899995160665957 0  0.3311411082267421 0.1899995262790566 0  0.3236728065799871 0.189999537308788 0  0.3162045032557425 0.1899995494832068 0  0.3087362016753566 0.1899995623485598 0  0.3012678982141019 0.189999575618007 0  0.2937995954110423 0.189999596536344 0  0.2863312940389564 0.1899996196336476 0  0.2788629916090462 0.1899996465329709 0  0.2713946901849094 0.1899996800018613 0  0.2639263889288451 0.1899997255177981 0  0.2564580887384981 0.18999979611
[...]
<PointData  Vectors="f_30-0"> 
<DataArray  type="Float64"  Name="f_30-0"  NumberOfComponents="3" format="ascii">0.0000000000000000e+00 0.0000000000000000e+00 0.0000000000000000e+00  0.0000000000000000e+00 0.0000000000000000e+00 0.0000000000000000e+00  0.0000000000000000e+00 0.0000000000000000e+00 0.0000000000000000e+00  0.0000000000000000e+00 0.0000000000000000e+00 0.0000000000000000e+00  6.8036616231831057e-03 -2.0839474769411993e-02 0.0000000000000000e+00  -2.6011945633074530e-03 -1.8161416418684847e-02 0.0000000000000000e+00  0.0000000000000000e+00 0.0000000000000000e+00 0.0000000000000000e+00  0.0000000000000000e+00 0.0000000000000000e+00 0.0000000000000000e+00  0.0000000000000000e+00 0.0000000000000000e+00 0.0000000000000000e+00  0.0000000000000000e+00 0.0000000000000000e+00 0.0000000000000000e+00  1.0795014564280727e-02 -6.1519824345781675e-02 0.0000000000000000e+00  0.0000000000000000e+00 0.0000000000000000e+00 0.0000000000000000e+00  0.0000000000000000e+00 0.0000000000000000e+00 0.0000000000000000e+00  0.0000000000000000e+00 0.0000000000000000e+00 0.0000000000000000e+00  0.0000000000000000e+00 0.0000000000000000e+00 0.0000000000000000e+00  0.0000000000000000e+00 0.0000000000000000e+00 0.0000000000000000e+00  0.0000000000000000e+00 0.0000000000000000e+00 0.0000000000000000e+00  0.0000000000000000e+00 0.0000000000000000e+00 0.0000000000000000e+00  0.0000000000000000e+00 0.0000000000000000e+00 0.0000000000000000e+00  0.0000000000000000e+00 0.0000000000000000e+00 0.0000000000000000e+00  0.0000000000000000e+00 0.0000000000000000e+00 0.0000000000000000e+00  0.0000000000000000e+00 0.0000000000000000e+00 0.0000000000000000e+00  0.0000000000000000e+00 0.0000000000000000e+00 0.0000000000000000e+00  0.0000000000000000e+00 0.0000000000000000e+00 0.0000000000000000e+00  0.0000000000000000e+00 0.0000000000000000e+00 0.0000000000000000e+00  0.0000000000000000e+00 0.0000000000000000e+00 0.0000000000000000e+00  0.0000000000000000e+00 0.0000000000000000e+00 0.0000000000000000e+00  0.0000000000000000e+00 0.0000000000000000e+00 0.0000000000000000e+00  0.0000000000000000e+00 0.0000000000000000e+00 0.0000000000000000e+00  0.0000000000000000e+00 0.0000000000000000e+00 0.0000000000000000e+00  0.0000000000000000e+00 0.0000000000000000e+00 0.0000000000000000e+00  0.0000000000000000e+00 0.0000000000000000e+00 0.0000000000000000e+00  0.0000000000000000e+00 0.0000000000000000e+00 0.0000000000000000e+00  0.0000000000000000e+00 0.0000000000000000e+00 0.0000000000000000e+00  0.0000000000000000e+00 0.0000000000000000e+00 0.0000000000000000e+00  0.0000000000000000e+00 0.0000000000000000e+00 0.0000000000000000e+00  0.0000000000000000e+00 0.0000000000000000e+00 0.0000000000000000e+00  0.0000000000000000e+00 0.0000000000000000e+00 0.0000000000000000e+00  0.0000000000000000e+00 0.0000000000000000e+00 0.0000000000000000e+00  0.0000000000000000e+00 0.0000000000000000e+00 0.0000000000000000e+00  0.0000000000000000e+00 0.0000000000000000e+00 0.0000000000000000e+00  0.0000000000000000e+00 0.0000000000000000e+00 0.0000000000000000e+00  0.0000000000000000e+00 0.0000000000000000e+00 0.0000000000000000e+00  0.0000000000000000e+00 0.0000000000000000e+00 0.0000000000000000e+00  0.0000000000000000e+00 0.0000000000000000e+00 0.0000000000000000e+00  0.0000000000000000e+00 0.0000000000000000e+00 0.0000000000000000e+00  0.0000000000000000e+00 0.0000000000000000e+00 0.0000000000000000e+00  0.0000000000000000e+00 0.0000000000000000e+00 0.0000000000000000e+00  0.0000000000000000e+00 0.0000000000000000e+00 0.0000000000000000e+00  0.0000000000000000e+00 0.0000000000000000e+00 0.0000000000000000e+00  0.0000000000000000e+00 0.0000000000000000e+00 0.0000000000000000e+00  0.0000000000000000e+00 0.0000000000000000e+00 0.0000000000000000e+00  0.0000000000000000e+00 0.0000000000000000e+00 0.0000000000000000e+00  0.0000000000000000e+00 0.0000000000000000e+00 0.0000000000000000e+00  0.0000000000000000e+00 0.0000000000000000e+00 0.0000000000000000e+00  0.0000000000000000e+00 0.0000000000000000e+00 0.0000000000000000e+00  0.0000000000000000e+00 0.0000000000000000e+00 0.0000000000000000e+00  0.0000000000000000e+00 0.0000000000000000e+00 0.0000000000000000e+00  0.0000000000000000e+00 0.0000000000000000e+00 0.0000000000000000e+00  0.0000000000000000e+00 0.0000000000000000e+00 0.0000000000000000e+00  0.0000000000000000e+00 0.0000000000000000e+00 0.0000000000000000e+00  0.0000000000000000e+00 0.0000000000000000e+00 0.0000000000000000e+00  2.2652961089907382e-09 9.4265952662581955e-10 0.0000000000000000e+00  -7.2302018413805438e-11 1.1783026848460752e-09 0.0000000000000000e+00  -2.7009503943898605e-09 1.0483547319863160e-09 0.0000000000000000e+00  0.0000000000000000e+00 0.0000000000000000e+00 0.0000000000000000e+00  0.0000000000000000e+00 0.0000000000000000e+00 0.0000000000000000e+00  0.0000000000000000e+00 0.0000000000000000e+00 0.0000000000000000e+00  0.0000000000000000e+00 0.0000000000000000e+00 0.0000000000000000e+00  0.0000000000000000e+00 0.0000000000000000e+00 0.0000000000000000e+00  0.0000000000000000e+00 0.0000000000000000e+00 0.0000000000000000e+00  0.0000000000000000e+00 0.0000000000000000e+00 0.0000000000000000e+00  0.0000000000000000e+00 0.0000000000000000e+00 0.0000000000000000e+00  0.0000000000000000e+00 0.0000000000000000e+00 0.0000000000000000e+00  0.0000000000000000e+00 0.0000000000000000e+00 0.0000000000000000e+00  0.0000000000000000e+00 0.0000000000000000e+00 0.0000000000000000e+00  0.0000000000000000e+00 0.0000000000000000e+00 0.0000000000000000e+00  0.0000000000000000e+00 0.0000000000000000e+00 0.0000000000000000e+00  0.0000000000000000e+00 0.0000000000000000e+00 0.0000000000000000e+00  0.0000000000000000e+00 0.0000000000000000e+00 0.0000000000000000e+00  0.0000000000000000e+00 0.0000000000000000e+00 0.0000000000000000e+00  0.0000000000000000e+00 0.0000000000000000e+00 0.0000000000000000e+00  0.0000000000000000e+00 0.0000000000000000e+00 0.0000000000000000e+00  0.0000000000000000e+00 0.0000000000000000e+00 0.0000000000000000e+00  0.0000000000000000e+00 0.0000000000000000e+00 0.0000000000000000e+00  0.0000000000000000e+00 0.0000000000000000e+00 0.0000000000000000e+00  0.0000000000000000e+00 0.0000000000000000e+00 0.0000000000000000e+00  0.0000000000000000e+00 0.0000000000000000e+00 0.0000000000000000e+00  0.0000000000000000e+00 0.0000000000000000e+00 0.0000000000000000e+00  0.0000000000000000e+00 0.0000000000000000e+00 0.0000000000000000e+00  0.0000000000000000e+00 0.0000000000000000e+00 0.0000000000000000e+00  0.0000000000000000e+00 0.0000000000000000e+00 0.0000000000000000e+00  0.0000000000000000e+00 0.0000000000000000e+00 0.0000000000000000e+00  0.0000000000000000e+00 0.0000000000000000e+00 0.0000000000000000e+00  0.0000000000000000e+00 0.0000000000000000e+00 0.0000000000000000e+00  0.0000000000000000e+00 0.0000000000000000e+00 0.0000000000000000e+00  0.0000000000000000e+00 0.0000000000000000e+00 0.0000000000000000e+00  0.0000000000000000e+00 0.0000000000000000e+00 0.0000000000000000e+00  0.0000000000000000e+00 0.0000000000000000e+00 0.0000000000000000e+00  0.0000000000000000e+00 0.0000000000000000e+00 0.0000000000000000e+00  0.0000000000000000e+00 0.0000000000000000e+00 0.0000000000000000e+00  0.0000000000000000e+00 0.0000000000000000e+00 0.0000000000000000e+00  0.0000000000000000e+00 0.0000000000000000e+00 0.0000000000000000e+00  0.0000000000000000e+00 0.0000000000000000e+00 0.0000000000000000e+00  0.0000000000000000e+00 0.0000000000000000e+00 0.0000000000000000e+00  0.0000000000000000e+00 0.0000000000000000e+00 0.0000000000000000e+00  0.0000000000000000e+00 0.0000000000000000e+00 0.0000000000000000e+00  0.0000000000000000e+00 0.0000000000000000e+00 0.0000000000000000e+00  0.0000000000000000e+00 0.0000000000000000e+00 0.0000000000000000e+00  0.0000000000000000e+00 0.0000000000000000e+00 0.0000000000000000e+00  0.0000000000000000e+00 0.0000000000000000e+00 0.0000000000000000e+00  0.0000000000000000e+00 0.0000000000000000e+00 0.0000000000000000e+00  0.0000000000000000e+00 0.0000000000000000e+00 0.0000000000000000e+00  0.0000000000000000e+00 0.0000000000000000e+00 0.0000000000000000e+00  0.0000000000000000e+00 0.0000000000000000e+00 0.0000000000000000e+00  0.0000000000000000e+00 0.0000000000000000e+00 0.0000000000000000e+00  0.0000000000000000e+00 0.0000000000000000e+00 0.0000000000000000e+00  0.0000000000000000e+00 0.0000000000000000e+00 0.0000000000000000e+00  0.0000000000000000e+00 0.0000000000000000e+00 0.0000000000000000e+00  0.0000000000000000e+00 0.0000000000000000e+00 0.0000000000000000e+00  0.0000000000000000e+00 0.0000000000000000e+00 0.0000000000000000e+00  0.0000000000000000e+00 0.0000000000000000e+00 0.0000000000000000e+00  0.0000000000000000e+00 0.0000000000000000e+00 0.0000000000000000e+00  0.0000000000000000e+00 0.0000000000000000e+00 0.0000000000000000e+00  0.0000000000000000e+00 0.0000000000000000e+00 0.0000000000000000e+00  0.0000000000000000e+00 0.0000000000000000e+00 0.0000000000000000e+00  0.0000000000000000e+00 0.0000000000000000e+00 0.0000000000000000e+00  0.0000000000000000e+00 0.0000000000000000e+00 0.0000000000000000e+00  0.0000000000000000e+00 0.0000000000000000e+00 0.0000000000000000e+00  0.0000000000000000e+00 0.0000000000000000e+00 0.0000000000000000e+00  0.0000000000000000e+00 0.0000000000000000e+00 0.0000000000000000e+00  0.0000000000000000e+00 0.0000000000000000e+00 0.0000000000000000e+00  0.0000000000000000e+00 0.0000000000000000e+00 0.0000000000000000e+00  0.0000000000000000e+00 0.0000000000000000e+00 0.0000000000000000e+00  0.0000000000000000e+00 0.0000000000000000e+00 0.0000000000000000e+00  0.0000000000000000e+00 0.0000000000000000e+00 0.0000000000000000e+00  0.0000000000000000e+00 0.0000000000000000e+00 0.0000000000000000e+00  0.0000000000000000e+00 0.0000000000000000e+00 0.0000000000000000e+00  0.0000000000000000e+00 0.0000000000000000e+00 0.0000000000000000e+00  0.0000000000000000e+00 0.0000000000000000e+00 0.0000000000000000e+00  0.0000000000000000e+00 0.0000000000000000e+00 0.0000000000000000e+00  0.0000000000000000e+00 0.0000000000000000e+00 0.0000000000000000e+00  0.0000000000000000e+00 0.0000000000000000e+00 0.0000000000000000e+00  3.5746936344214497e-02 7.6103399088086721e-02 0.0000000000000000e+00  2.7653876824597096e-02 3.2737681516896329e-02 0.0000000000000000e+00  1.7333773137728731e-02 -3.8581078679644169e-03 0.0000000000000000e+00  1.6880692779010529e-02 -3.5492153981590675e-02 0.0000000000000000e+00  8.5463763635109102e-03 -4.4986914092353940e-02 0.0000000000000000e+00  1.5315192054901420e-02 -6.5185202564941480e-02 0.0000000000000000e+00  1.0888079749460178e-02 -6.8334932564099782e-02 0.0000000000000000e+00  -2.3216463347744821e-03 -7.0999433602719875e-02 0.0000000000000000e+00  1.4780493101486323e-02 -6.3556466218681065e-02 0.0000000000000000e+00  -2.8073340113439408e-03 -6.5782696573461030e-02 0.0000000000000000e+00  1.2928351739384714e-02 -6.3424818910840855e-02 0.0000000000000000e+00  -2.7835237042938827e-03 -6.1795097666455877e-02 0.0000000000000000e+00  1.2821360607472380e-02 -6.2387512466415489e-02 0.0000000000000000e+00  9.3644121411269601e-05 -5.6797834914500293e-02 0.0000000000000000e+00  -1.4007748915593214e-03 -5.5043075074893512e-02 0.0000000000000000e+00  4.2655282373098317e-03 -4.9671652317437094e-02 0.0000000000000000e+00  -1.9924106136603730e-03 -5.1308081916049637e-02 0.0000000000000000e+00  4.8727015383232854e-03 -4.8465483101020973e-02 0.0000000000000000e+00  -2.9918187198149878e-03 -4.8785858650559351e-02 0.0000000000000000e+00  6.2518847076789268e-03 -4.8362926920035430e-02 0.0000000000000000e+00  -4.6194334088421468e-03 -4.8194998576250890e-02 0.0000000000000000e+00  8.8282427253811319e-03 -4.9150614129372570e-02 0.0000000000000000e+00  -2.2475610555958083e-03 -4.7387057121493818e-02 0.0000000000000000e+00  -4.2778883263099865e-03 -5.0180602938648372e-02 0.0000000000000000e+00  2.4193171819364887e-03 -5.2139218171191111e-02 0.0000000000000000e+00  -2.7198556468477713e-03 -5.3448196403484617e-02 0.0000000000000000e+00  2.6298411851198465e-03 -5.6199204171607245e-02 0.0000000000000000e+00  -5.6691417434155816e-03 -5.9826617775557714e-02 0.0000000000000000e+00  6.3929178377689546e-03 -6.1413195793209231e-02 0.0000000000000000e+00  -8.6649719010520321e-03 -6.3683486471762807e-02 0.0000000000000000e+00  7.6727904509357042e-03 -6.7788198804409228e-02 0.0000000000000000e+00  -8.0288408116660718e-03 -6.9377792505261340e-02 0.0000000000000000e+00  5.9675740926829028e-03 -7.9140479045008233e-02 0.0000000000000000e+00  -8.8694538141938194e-03 -8.1881372914347939e-02 0.0000000000000000e+00  6.4887076452515595e-03 -8.3353030220107677e-02 0.0000000000000000e+00  -1.1718413256046355e-02 -8.3507592365368380e-02 0.0000000000000000e+00  9.1755568046941339e-03 -9.0427120350407328e-02 0.0000000000000000e+00  -1.4995251287602509e-02 -9.9089975890019277e-02 0.0000000000000000e+00  1.0997285798037031e-02 -1.0708705058413080e-01 0.0000000000000000e+00  -1.4627131253917486e-02 -1.0275672621246550e-01 0.0000000000000000e+00  9.4806726440996060e-03 -1.1263164250050786e-01 0.0000000000000000e+00  -1.5189186320551638e-05 -1.0950239145402352e-01 0.0000000000000000e+00  -1.8352878955553306e-02 -1.1094398631079369e-01 0.0000000000000000e+00  1.0787556636306631e-02 -1.0042021932558666e-01 0.0000000000000000e+00  -1.1061059454924487e-02 -1.0623887698122306e-01 0.0000000000000000e+00  2.0740088950544799e-02 -7.8469352822011063e-02 0.0000000000000000e+00  2.2287125185370456e-02 -5.4774538494923607e-02 0.0000000000000000e+00  -1.4726095451926876e-02 -4.7053640223584360e-02 0.0000000000000000e+00  -4.3570263528628179e-03 -7.1614761767529386e-02 0.0000000000000000e+00  1.7733219474127745e-02 -9.7616380381971679e-02 0.0000000000000000e+00  -4.4596896308226348e-03 -1.0096069534164513e-01 0.0000000000000000e+00  1.8867471247456257e-02 -1.1358357952950907e-01 0.0000000000000000e+00  4.5906019437945960e-03 -1.0359269042988788e-01 0.0000000000000000e+00  -1.1870225228903389e-02 -1.0885520718899325e-01 0.0000000000000000e+00  1.5399183405747047e-02 -9.6335158045734184e-02 0.0000000000000000e+00  -1.1838751889215579e-02 -9.5951663650604591e-02 0.0000000000000000e+00  1.3199488088868429e-02 -9.2716658712333255e-02 0.0000000000000000e+00  -1.0408361511605464e-02 -9.0916704360451114e-02 0.0000000000000000e+00  1.0544399085056893e-02 -8.3705107168227988e-02 0.0000000000000000e+00  -9.8439725152967752e-03 -7.9322677214569509e-02 0.0000000000000000e+00  9.4629723791906199e-03 -7.1350742007721152e-02 0.0000000000000000e+00  -9.7234827523501426e-03 -6.8738202590186995e-02 0.0000000000000000e+00  7.6027177813782617e-03 -6.5704547868354710e-02 0.0000000000000000e+00  -8.6311235213357151e-03 -6.4362281974632243e-02 0.0000000000000000e+00  6.4571067371793425e-03 -6.0583468627452591e-02 0.0000000000000000e+00  -8.1467185740639186e-03 -5.7761541820926014e-02 0.0000000000000000e+00  5.9376562415551209e-03 -5.3200657617815977e-02 0.0000000000000000e+00  -7.7889225423104823e-03 -5.1857878612476822e-02 0.0000000000000000e+00  5.3693772166311538e-03 -5.0795848450624993e-02 0.0000000000000000e+00  -6.9495068607516733e-03 -4.9258090445085792e-02 0.0000000000000000e+00  5.4966522381882758e-03 -5.0245745313966445e-02 0.0000000000000000e+00  -2.5500564404070483e-03 -4.7677302367748760e-02 0.0000000000000000e+00  -6.3052479040976031e-03 -4.8860401907902862e-02 0.0000000000000000e+00  1.1540542142812898e-03 -4.6592160170944641e-02 0.0000000000000000e+00  -5.8178329086620087e-03 -4.9842948744000186e-02 0.0000000000000000e+00  1.8579749972608864e-03 -5.2287672256896706e-02 0.0000000000000000e+00  -5.4425036303574984e-03 -5.3205104291755484e-02 0.0000000000000000e+00  1.9745562854799796e-03 -5.3887368053431188e-02 0.0000000000000000e+00  -5.1014954362933853e-03 -5.1931096074679953e-02 0.0000000000000000e+00  2.3428272945716666e-03 -5.5039232017654344e-02 0.0000000000000000e+00  2.3654684532596166e-05 -5.6969231866082631e-02 0.0000000000000000e+00  -1.2959480311401112e-02 -6.2917965177907806e-02 0.0000000000000000e+00  3.4732309929832879e-03 -6.2881981290961966e-02 0.0000000000000000e+00  -1.3896517929656998e-02 -6.5793498600178218e-02 0.0000000000000000e+00  4.0373663396176514e-03 -6.8029542594447046e-02 0.0000000000000000e+00  -1.5520960171009335e-02 -6.6879030479830529e-02 0.0000000000000000e+00  3.4364015767615699e-03 -7.0511299819567663e-02 0.0000000000000000e+00  -1.0871046127860697e-02 -6.7313723466752240e-02 0.0000000000000000e+00  -1.6266679325630033e-02 -6.5364220164618528e-02 0.0000000000000000e+00  -9.2232119298142120e-03 -4.6006293311990652e-02 0.0000000000000000e+00  -1.8734991665093206e-02 -3.6225429531869496e-02 0.0000000000000000e+00  -1.8323533504757832e-02 -4.6078588575115117e-03 0.0000000000000000e+00  -2.7881316587227124e-02 3.1032152712346529e-02 0.0000000000000000e+00  -3.6895012032466055e-02 7.6095187774676207e-02 0.0000000000000000e+00  -2.4185777190031480e-04 -1.7816365953485881e-02 0.0000000000000000e+00  -1.4956470502162117e-03 6.0430582704269285e-02 0.0000000000000000e+00  -1.4343550297593120e-03 8.1185719439894929e-02 0.0000000000000000e+00  3.2711188721789262e-03 8.4448179591549613e-02 0.0000000000000000e+00  8.0423716596310314e-04 1.6873659636599331e-02 0.0000000000000000e+00  2.3022248158746444e-04 7.8136850016129189e-02 0.0000000000000000e+00  5.6903071689793988e-05 4.1148639126364260e-02 0.0000000000000000e+00  1.4964371443136422e-04 7.0380609349468187e-02 0.0000000000000000e+00  1.8403240180540157e-03 5.5112252029148510e-02 0.0000000000000000e+00  2.1430186998937258e-04 5.2642697865254315e-02 0.0000000000000000e+00  -3.5544346299178168e-04 6.2848816437959532e-02 0.0000000000000000e+00  1.3609705866680060e-03 4.2922356612122382e-02 0.0000000000000000e+00  5.2452302540450949e-05 5.0653988056412386e-02 0.0000000000000000e+00  -1.3786536122073496e-03 4.7415985504708116e-02 0.0000000000000000e+00  -6.6439163396510588e-05 4.1110668405637221e-02 0.0000000000000000e+00  -1.7667190343206350e-04 4.6275095315537813e-02 0.0000000000000000e+00  2.0349976953086232e-04 5.6257824010408290e-02 0.0000000000000000e+00  -6.5685197415585208e-04 3.9832827418280148e-02 0.0000000000000000e+00  1.7528912936323578e-04 4.2427337495458767e-02 0.0000000000000000e+00  -3.4725860854082442e-04 3.7942736537078567e-02 0.0000000000000000e+00  -1.0881866947510756e-03 3.9710364842876322e-02 0.0000000000000000e+00  5.0122788857857111e-04 3.0960117729403165e-02 0.0000000000000000e+00  -9.5374456345410352e-05 3.5823138511730503e-02 0.0000000000000000e+00  -3.0639070184415411e-04 7.3685008633772753e-02 0.0000000000000000e+00  1.4685347371807807e-04 4.3099147586528538e-02 0.0000000000000000e+00  5.5900625020786320e-03 6.3444860583935697e-02 0.0000000000000000e+00  -1.4197570077110989e-02 -3.3039546643025912e-03 0.0000000000000000e+00  -2.8439880896256719e-03 5.0808409786018985e-02 0.0000000000000000e+00  -4.3618019414788361e-03 5.7610713877964785e-02 0.0000000000000000e+00  6.5413059879099855e-03 3.1831838315561731e-02 0.0000000000000000e+00  -3.6133088315346111e-03 3.7885733089251160e-02 0.0000000000000000e+00  -1.7844605407653709e-03 3.6509521756795275e-02 0.0000000000000000e+00  -1.8510046996738441e-03 4.5370911784004368e-02 0.0000000000000000e+00  -2.0231241547923515e-03 2.9186499345665144e-02 0.0000000000000000e+00  -6.6166097199766281e-04 3.2965646811670538e-02 0.0000000000000000e+00  -1.4885372370784908e-03 3.4126932385202542e-02 0.0000000000000000e+00  -6.1199281826419013e-04 2.8797087547091673e-02 0.0000000000000000e+00  -7.8922647414569023e-04 3.1286250832253178e-02 0.0000000000000000e+00  -1.9125215282497503e-03 4.2016045389000688e-02 0.0000000000000000e+00  3.5913688042588375e-04 3.0111722049362050e-02 0.0000000000000000e+00  1.4834510928875546e-04 2.7800406529004312e-02 0.0000000000000000e+00  -4.9032332981900437e-03 -3.6205111657051287e-02 0.0000000000000000e+00  3.4512711514195667e-03 -3.5073775396990435e-02 0.0000000000000000e+00  -2.3462973726438068e-02 4.1705931692466815e-02 0.0000000000000000e+00  1.4504575656111213e-02 -3.3335153342330024e-0