<?xml version="1.0"?>
<VTKFile type="UnstructuredGrid"  version="0.1"  >
<UnstructuredGrid>
<Piece  NumberOfPoints="1419" NumberOfCells="2698">
<Points>
<DataArray  type="Float64"  NumberOfComponents="3"  format="ascii">4.075350925715119e-07 -3.185622430952241e-06 0  4.388904777538347e-07 0.4099967936395563 0  2.500000869637265 -5.014338384956863e-06 0  2.500000869637317 0.4099949856616319 0  0.6000009865775972 0.1899947824708505 0  0.6000010744238703 0.2099947175597205 0  0.25 0.2 0  0.1500004186934006 0.1999968366267017 0  0.2489897948556636 0.21 0  0.2489897948556636 0.19 0  0.6000010799323164 0.1999947225915294 0  4.384327150032012e-07 0.3807110804632509 0  4.371447743698894e-07 0.3514253692024813 0  4.350468686835206e-07 0.3221396594370584 0  4.322474374640479e-07 0.2928539502505245 0  4.289425540579021e-07 0.2635682409194151 0  4.252938943695935e-07 0.234282530954614 0  4.215124229025077e-07 0.204996819628792 0  4.178690085692476e-07 0.1757111070128083 0  4.146322264837395e-07 0.1464253929306075 0  4.119331563828825e-07 0.1171396776192761 0  4.099461510621416e-07 0.08785396146780219 0  4.085588283430215e-07 0.05856824511073718 0  4.077777069446199e-07 0.02928252922580662 0  0.03015484488605646 -3.186259465200097e-06 0  0.0614004263562434 -3.188590597859403e-06 0  0.09377664602768207 -3.193980036166731e-06 0  0.1273243996310077 -3.204837750531947e-06 0  0.1620860890420904 -3.225527737767723e-06 0  0.1981056475719641 -3.266822260508717e-06 0  0.2354285944232707 -3.345138795604483e-06 0  0.2741020814751666 -3.471935462498039e-06 0  0.3141749986566046 -3.650119894449544e-06 0  0.355697973941287 -3.87564917610813e-06 0  0.3987234813302267 -4.122712345591611e-06 0  0.4433058887564221 -4.36345994464033e-06 0  0.4895015222575932 -4.577909186921877e-06 0  0.5373687706090664 -4.747829993279125e-06 0  0.5869680994979322 -4.866100305400811e-06 0  0.6383621755688564 -4.941498864341087e-06 0  0.6916159490166511 -4.981219799411184e-06 0  0.7467967103093071 -5.000219950200962e-06 0  0.8039742058479187 -5.008972959988668e-06 0  0.8632206780638136 -5.012630915521467e-06 0  0.9246109992984065 -5.013986271257113e-06 0  0.9882227489918357 -5.014364155116693e-06 0  1.054136314222713 -5.014467164064603e-06 0  1.122434969612749 -5.014449071673993e-06 0  1.193205046460224 -5.014415483926887e-06 0  1.266535959340812 -5.014386659131966e-06 0  1.342520385585287 -5.014366890314074e-06 0  1.421254318087335 -5.014354515540432e-06 0  1.502837258715272 -5.014347016725333e-06 0  1.58737230938147 -5.014342903235443e-06 0  1.67496628840717 -5.014340702113305e-06 0  1.765729871459143 -5.014339525560531e-06 0  1.859777778515546 -5.01433894560648e-06 0  1.957228847123505 -5.014338641137246e-06 0  2.058206199506831 -5.014338502419647e-06 0  2.162837460827066 -5.014338431606818e-06 0  2.271254826928075 -5.014338401595647e-06 0  2.383595316440677 -5.014338388751101e-06 0  2.500000869637271 0.1024949856613787 0  2.500000869637292 0.2049949856610976 0  2.500000869637312 0.3074949856613478 0  2.383595316440986 0.4099949856616357 0  2.271254826928686 0.409994985661649 0  2.162837460828071 0.4099949856616803 0  2.058206199508465 0.4099949856617479 0  1.957228847126196 0.4099949856618853 0  1.8597777785204 0.4099949856622054 0  1.765729871467862 0.4099949856627865 0  1.674966288423757 0.4099949856640244 0  1.587372309412449 0.4099949856662715 0  1.502837258773419 0.4099949856705971 0  1.421254318196846 0.4099949856790925 0  1.342520385782114 0.4099949856939294 0  1.266535959687696 0.4099949857209386 0  1.19320504707594 0.4099949857763048 0  1.122434970682005 0.4099949858856288 0  1.054136315994411 0.409994986089368 0  0.9882227519538963 0.4099949865670572 0  0.9246110040610673 0.4099949875657346 0  0.8632206857287353 0.4099949897446185 0  0.8039742178620818 0.4099949946207845 0  0.7467967286227589 0.4099950052477039 0  0.6916159755888992 0.4099950272287339 0  0.6383622119716176 0.4099950717176333 0  0.5869681474327371 0.4099951492736769 0  0.5373688284216529 0.4099952689889657 0  0.4895015874425144 0.4099954372528301 0  0.443305960077478 0.409995643506281 0  0.3987235572563628 0.4099958723287935 0  0.3556980523491651 0.4099961043026719 0  0.3141750772241971 0.4099963163430166 0  0.2741021557775554 0.4099964892274979 0  0.2354286625094768 0.4099966118689091 0  0.1981057076185609 0.4099966919500274 0  0.1620861406627123 0.4099967388943305 0  0.1273244438303519 0.4099967651812065 0  0.09377668439543786 0.4099967804223383 0  0.06140046073911099 0.4099967884154293 0  0.03015487691418089 0.4099967925914448 0  0.2497468076502589 0.2050254481002335 0  0.2497468076502614 0.1949745518997913 0  0.2469966905555536 0.1829302221246363 0  0.2439896072193344 0.1762296038951053 0  0.2400334911048412 0.1700419714607286 0  0.2352137021208094 0.1645007064091696 0  0.2296342278646797 0.159725291194998 0  0.2234154399569896 0.1558187281342876 0  0.2166915015973028 0.1528652806900476 0  0.209607473141907 0.1509286559326823 0  0.2023161836875361 0.150050623358531 0  0.1949749323367258 0.1502501238187455 0  0.1877420968278959 0.1515228476211357 0  0.1807737152782256 0.1538413360498841 0  0.1742201209602219 0.1571555680943645 0  0.1682226982570341 0.1613940431389198 0  0.1629108332653586 0.1664653205149908 0  0.1583991217993201 0.1722599943299422 0  0.1547848977669116 0.1786530520210917 0  0.1521461328215351 0.1855065723883849 0  0.1505397547202947 0.1926727002081761 0  0.1505397602806819 0.2073209738614938 0  0.1521461440001101 0.2144871042560879 0  0.154784914434316 0.2213406290787044 0  0.1583991440394536 0.2277336936657502 0  0.1629108609748828 0.2335283772588002 0  0.1682227315193273 0.2385996687305714 0  0.1742201596402959 0.2428381627200838 0  0.1807737594949507 0.2461524210200984 0  0.1877421464454034 0.248470945461192 0  0.1949749874166313 0.2497437187965409 0  0.2023162441687306 0.2499432845535783 0  0.2096075391811962 0.2490653427595371 0  0.2166915728692639 0.2471288369356334 0  0.2234155163222283 0.2441755545255048 0  0.2296343094230878 0.2402692134892487 0  0.2352137879221219 0.23549410859381 0  0.2400335800410377 0.2299532717103068 0  0.2439896958711668 0.2237663004011333 0  0.2469967678538208 0.2170667847634255 0  0.2564583463299846 0.2099985702414054 0  0.2639267273808583 0.2099980903188823 0  0.2713951175769985 0.2099977762208985 0  0.2788634510750367 0.209997519767388 0  0.2863317807446943 0.2099973015233673 0  0.2938000882620789 0.2099971186534701 0  0.3012684026868976 0.2099969595636167 0  0.3087367069071736 0.209996804924182 0  0.3162050126633266 0.2099966622129488 0  0.3236733133977253 0.2099965295335778 0  0.3311416201488139 0.2099964064377723 0  0.3386099186867163 0.2099962918024691 0  0.3460782257879348 0.2099961794454104 0  0.3535465240243795 0.2099960615217918 0  0.361014821612253 0.2099959860485 0  0.3684831244985521 0.2099959027617656 0  0.3759514139636125 0.2099958194946452 0  0.383419713725109 0.2099957374584529 0  0.3908880000165135 0.2099956607064807 0  0.3983562991617967 0.2099955847224329 0  0.4058245837734705 0.2099955173295107 0  0.4132928863786823 0.2099954317607828 0  0.4207611661146721 0.2099953482403453 0  0.4282294935872977 0.2099953020002047 0  0.4356978402918005 0.2099951846442481 0  0.4431661801739622 0.2099951850348434 0  0.4506345302458956 0.2099951730711925 0  0.4581028515649531 0.2099951230049105 0  0.465571199913398 0.209995034835064 0  0.4730395267292293 0.2099949905037007 0  0.4805078723206878 0.2099949975175026 0  0.487976188744831 0.2099949640833398 0  0.4954445257433286 0.2099948799816078 0  0.5029128404604413 0.2099948365494564 0  0.5103811781476008 0.2099948471993036 0  0.517849494293496 0.209994801054141 0  0.5253178291536234 0.2099947540025795 0  0.5327861534161635 0.2099947457692015 0  0.5402545134526383 0.2099947017317404 0  0.5477228694838865 0.2099945819284944 0  0.5551912339141197 0.2099945951566762 0  0.5626596015577428 0.2099946016475002 0  0.5701278965662174 0.2099946388159751 0  0.5775962068769269 0.2099946806982323 0  0.5850645017675061 0.2099946740294114 0  0.5925328147029846 0.2099946419903723 0  0.6000011182201139 0.2049946995979247 0  0.6000010219188379 0.194994747917998 0  0.5925326897981925 0.1899947742461029 0  0.5850643904595546 0.1899947388576624 0  0.5775960588498026 0.1899947058560919 0  0.570127746615933 0.1899946742160337 0  0.5626594234056266 0.1899946272196126 0  0.5551910679285418 0.1899946457315078 0  0.5477227384446035 0.1899946549286433 0  0.540254375266162 0.1899946789179957 0  0.5327860528460691 0.1899947181339817 0  0.5253177190952819 0.1899947563481792 0  0.5178494076410415 0.1899947855409693 0  0.5103810809831252 0.1899948107024774 0  0.5029127664470392 0.1899948381057266 0  0.4954444242282893 0.18999487429366 0  0.4879761120909362 0.189994916067356 0  0.4805077915051987 0.1899949535255742 0  0.4730394742796033 0.1899949885340336 0  0.4655711262009642 0.1899950302097573 0  0.4581028110675676 0.189995079585311 0  0.4506344915563472 0.1899951249763348 0  0.4431661755622097 0.1899951673255912 0  0.4356978232313437 0.1899952196404653 0  0.4282295032707016 0.1899952806307124 0  0.4207611761308502 0.1899953307231155 0  0.413292860737391 0.1899954252861923 0  0.4058245589309478 0.1899955109042265 0  0.3983562447011287 0.1899955921339987 0  0.3908879421325632 0.1899956736247724 0  0.3834196277540785 0.1899957550645112 0  0.3759513238068966 0.1899958380023689 0  0.3684830114888591 0.1899959231122705 0  0.3610147094412218 0.1899960065274783 0  0.353546397480488 0.189996085708822 0  0.3460780859146666 0.1899962007473708 0  0.3386097816250938 0.1899963139045284 0  0.3311414713199751 0.1899964300113282 0  0.3236731697557825 0.1899965522420589 0  0.3162048652775035 0.1899966833158907 0  0.3087365647933036 0.1899968244551786 0  0.3012682638052626 0.1899969807433309 0  0.2937999578403635 0.1899971441490192 0  0.2863316405828627 0.1899973238595455 0  0.2788633259584111 0.1899975170876269 0  0.2713949601192988 0.1899977842139439 0  0.26392659033474 0.1899981954592988 0  0.2564582281442788 0.1899985949
[...]
<PointData  Vectors="f_30-0"> 
<DataArray  type="Float64"  Name="f_30-0"  NumberOfComponents="3" format="ascii">0.0000000000000000e+00 0.0000000000000000e+00 0.0000000000000000e+00  0.0000000000000000e+00 0.0000000000000000e+00 0.0000000000000000e+00  0.0000000000000000e+00 0.0000000000000000e+00 0.0000000000000000e+00  0.0000000000000000e+00 0.0000000000000000e+00 0.0000000000000000e+00  1.6739527064762177e-01 -3.2461589201213126e-01 0.0000000000000000e+00  -2.8253068152950678e-01 -5.5114663406167486e-01 0.0000000000000000e+00  0.0000000000000000e+00 0.0000000000000000e+00 0.0000000000000000e+00  0.0000000000000000e+00 0.0000000000000000e+00 0.0000000000000000e+00  0.0000000000000000e+00 0.0000000000000000e+00 0.0000000000000000e+00  0.0000000000000000e+00 0.0000000000000000e+00 0.0000000000000000e+00  7.1682601238889387e-01 -3.9685692060557159e-01 0.0000000000000000e+00  0.0000000000000000e+00 0.0000000000000000e+00 0.0000000000000000e+00  0.0000000000000000e+00 0.0000000000000000e+00 0.0000000000000000e+00  0.0000000000000000e+00 0.0000000000000000e+00 0.0000000000000000e+00  0.0000000000000000e+00 0.0000000000000000e+00 0.0000000000000000e+00  0.0000000000000000e+00 0.0000000000000000e+00 0.0000000000000000e+00  0.0000000000000000e+00 0.0000000000000000e+00 0.0000000000000000e+00  0.0000000000000000e+00 0.0000000000000000e+00 0.0000000000000000e+00  0.0000000000000000e+00 0.0000000000000000e+00 0.0000000000000000e+00  0.0000000000000000e+00 0.0000000000000000e+00 0.0000000000000000e+00  0.0000000000000000e+00 0.0000000000000000e+00 0.0000000000000000e+00  0.0000000000000000e+00 0.0000000000000000e+00 0.0000000000000000e+00  0.0000000000000000e+00 0.0000000000000000e+00 0.0000000000000000e+00  0.0000000000000000e+00 0.0000000000000000e+00 0.0000000000000000e+00  0.0000000000000000e+00 0.0000000000000000e+00 0.0000000000000000e+00  0.0000000000000000e+00 0.0000000000000000e+00 0.0000000000000000e+00  0.0000000000000000e+00 0.0000000000000000e+00 0.0000000000000000e+00  0.0000000000000000e+00 0.0000000000000000e+00 0.0000000000000000e+00  0.0000000000000000e+00 0.0000000000000000e+00 0.0000000000000000e+00  0.0000000000000000e+00 0.0000000000000000e+00 0.0000000000000000e+00  0.0000000000000000e+00 0.0000000000000000e+00 0.0000000000000000e+00  0.0000000000000000e+00 0.0000000000000000e+00 0.0000000000000000e+00  0.0000000000000000e+00 0.0000000000000000e+00 0.0000000000000000e+00  0.0000000000000000e+00 0.0000000000000000e+00 0.0000000000000000e+00  0.0000000000000000e+00 0.0000000000000000e+00 0.0000000000000000e+00  0.0000000000000000e+00 0.0000000000000000e+00 0.0000000000000000e+00  0.0000000000000000e+00 0.0000000000000000e+00 0.0000000000000000e+00  0.0000000000000000e+00 0.0000000000000000e+00 0.0000000000000000e+00  0.0000000000000000e+00 0.0000000000000000e+00 0.0000000000000000e+00  0.0000000000000000e+00 0.0000000000000000e+00 0.0000000000000000e+00  0.0000000000000000e+00 0.0000000000000000e+00 0.0000000000000000e+00  0.0000000000000000e+00 0.0000000000000000e+00 0.0000000000000000e+00  0.0000000000000000e+00 0.0000000000000000e+00 0.0000000000000000e+00  0.0000000000000000e+00 0.0000000000000000e+00 0.0000000000000000e+00  0.0000000000000000e+00 0.0000000000000000e+00 0.0000000000000000e+00  0.0000000000000000e+00 0.0000000000000000e+00 0.0000000000000000e+00  0.0000000000000000e+00 0.0000000000000000e+00 0.0000000000000000e+00  0.0000000000000000e+00 0.0000000000000000e+00 0.0000000000000000e+00  0.0000000000000000e+00 0.0000000000000000e+00 0.0000000000000000e+00  0.0000000000000000e+00 0.0000000000000000e+00 0.0000000000000000e+00  0.0000000000000000e+00 0.0000000000000000e+00 0.0000000000000000e+00  0.0000000000000000e+00 0.0000000000000000e+00 0.0000000000000000e+00  0.0000000000000000e+00 0.0000000000000000e+00 0.0000000000000000e+00  0.0000000000000000e+00 0.0000000000000000e+00 0.0000000000000000e+00  0.0000000000000000e+00 0.0000000000000000e+00 0.0000000000000000e+00  0.0000000000000000e+00 0.0000000000000000e+00 0.0000000000000000e+00  0.0000000000000000e+00 0.0000000000000000e+00 0.0000000000000000e+00  0.0000000000000000e+00 0.0000000000000000e+00 0.0000000000000000e+00  0.0000000000000000e+00 0.0000000000000000e+00 0.0000000000000000e+00  0.0000000000000000e+00 0.0000000000000000e+00 0.0000000000000000e+00  0.0000000000000000e+00 0.0000000000000000e+00 0.0000000000000000e+00  0.0000000000000000e+00 0.0000000000000000e+00 0.0000000000000000e+00  1.4219805720950857e-08 5.3022487452300489e-09 0.0000000000000000e+00  -2.7323311572376961e-10 7.8169855326375196e-09 0.0000000000000000e+00  -1.4994399304022343e-08 5.8928355134939817e-09 0.0000000000000000e+00  0.0000000000000000e+00 0.0000000000000000e+00 0.0000000000000000e+00  0.0000000000000000e+00 0.0000000000000000e+00 0.0000000000000000e+00  0.0000000000000000e+00 0.0000000000000000e+00 0.0000000000000000e+00  0.0000000000000000e+00 0.0000000000000000e+00 0.0000000000000000e+00  0.0000000000000000e+00 0.0000000000000000e+00 0.0000000000000000e+00  0.0000000000000000e+00 0.0000000000000000e+00 0.0000000000000000e+00  0.0000000000000000e+00 0.0000000000000000e+00 0.0000000000000000e+00  0.0000000000000000e+00 0.0000000000000000e+00 0.0000000000000000e+00  0.0000000000000000e+00 0.0000000000000000e+00 0.0000000000000000e+00  0.0000000000000000e+00 0.0000000000000000e+00 0.0000000000000000e+00  0.0000000000000000e+00 0.0000000000000000e+00 0.0000000000000000e+00  0.0000000000000000e+00 0.0000000000000000e+00 0.0000000000000000e+00  0.0000000000000000e+00 0.0000000000000000e+00 0.0000000000000000e+00  0.0000000000000000e+00 0.0000000000000000e+00 0.0000000000000000e+00  0.0000000000000000e+00 0.0000000000000000e+00 0.0000000000000000e+00  0.0000000000000000e+00 0.0000000000000000e+00 0.0000000000000000e+00  0.0000000000000000e+00 0.0000000000000000e+00 0.0000000000000000e+00  0.0000000000000000e+00 0.0000000000000000e+00 0.0000000000000000e+00  0.0000000000000000e+00 0.0000000000000000e+00 0.0000000000000000e+00  0.0000000000000000e+00 0.0000000000000000e+00 0.0000000000000000e+00  0.0000000000000000e+00 0.0000000000000000e+00 0.0000000000000000e+00  0.0000000000000000e+00 0.0000000000000000e+00 0.0000000000000000e+00  0.0000000000000000e+00 0.0000000000000000e+00 0.0000000000000000e+00  0.0000000000000000e+00 0.0000000000000000e+00 0.0000000000000000e+00  0.0000000000000000e+00 0.0000000000000000e+00 0.0000000000000000e+00  0.0000000000000000e+00 0.0000000000000000e+00 0.0000000000000000e+00  0.0000000000000000e+00 0.0000000000000000e+00 0.0000000000000000e+00  0.0000000000000000e+00 0.0000000000000000e+00 0.0000000000000000e+00  0.0000000000000000e+00 0.0000000000000000e+00 0.0000000000000000e+00  0.0000000000000000e+00 0.0000000000000000e+00 0.0000000000000000e+00  0.0000000000000000e+00 0.0000000000000000e+00 0.0000000000000000e+00  0.0000000000000000e+00 0.0000000000000000e+00 0.0000000000000000e+00  0.0000000000000000e+00 0.0000000000000000e+00 0.0000000000000000e+00  0.0000000000000000e+00 0.0000000000000000e+00 0.0000000000000000e+00  0.0000000000000000e+00 0.0000000000000000e+00 0.0000000000000000e+00  0.0000000000000000e+00 0.0000000000000000e+00 0.0000000000000000e+00  0.0000000000000000e+00 0.0000000000000000e+00 0.0000000000000000e+00  0.0000000000000000e+00 0.0000000000000000e+00 0.0000000000000000e+00  0.0000000000000000e+00 0.0000000000000000e+00 0.0000000000000000e+00  0.0000000000000000e+00 0.0000000000000000e+00 0.0000000000000000e+00  0.0000000000000000e+00 0.0000000000000000e+00 0.0000000000000000e+00  0.0000000000000000e+00 0.0000000000000000e+00 0.0000000000000000e+00  0.0000000000000000e+00 0.0000000000000000e+00 0.0000000000000000e+00  0.0000000000000000e+00 0.0000000000000000e+00 0.0000000000000000e+00  0.0000000000000000e+00 0.0000000000000000e+00 0.0000000000000000e+00  0.0000000000000000e+00 0.0000000000000000e+00 0.0000000000000000e+00  0.0000000000000000e+00 0.0000000000000000e+00 0.0000000000000000e+00  0.0000000000000000e+00 0.0000000000000000e+00 0.0000000000000000e+00  0.0000000000000000e+00 0.0000000000000000e+00 0.0000000000000000e+00  0.0000000000000000e+00 0.0000000000000000e+00 0.0000000000000000e+00  0.0000000000000000e+00 0.0000000000000000e+00 0.0000000000000000e+00  0.0000000000000000e+00 0.0000000000000000e+00 0.0000000000000000e+00  0.0000000000000000e+00 0.0000000000000000e+00 0.0000000000000000e+00  0.0000000000000000e+00 0.0000000000000000e+00 0.0000000000000000e+00  0.0000000000000000e+00 0.0000000000000000e+00 0.0000000000000000e+00  0.0000000000000000e+00 0.0000000000000000e+00 0.0000000000000000e+00  0.0000000000000000e+00 0.0000000000000000e+00 0.0000000000000000e+00  0.0000000000000000e+00 0.0000000000000000e+00 0.0000000000000000e+00  0.0000000000000000e+00 0.0000000000000000e+00 0.0000000000000000e+00  0.0000000000000000e+00 0.0000000000000000e+00 0.0000000000000000e+00  0.0000000000000000e+00 0.0000000000000000e+00 0.0000000000000000e+00  0.0000000000000000e+00 0.0000000000000000e+00 0.0000000000000000e+00  0.0000000000000000e+00 0.0000000000000000e+00 0.0000000000000000e+00  0.0000000000000000e+00 0.0000000000000000e+00 0.0000000000000000e+00  0.0000000000000000e+00 0.0000000000000000e+00 0.0000000000000000e+00  0.0000000000000000e+00 0.0000000000000000e+00 0.0000000000000000e+00  0.0000000000000000e+00 0.0000000000000000e+00 0.0000000000000000e+00  0.0000000000000000e+00 0.0000000000000000e+00 0.0000000000000000e+00  0.0000000000000000e+00 0.0000000000000000e+00 0.0000000000000000e+00  0.0000000000000000e+00 0.0000000000000000e+00 0.0000000000000000e+00  0.0000000000000000e+00 0.0000000000000000e+00 0.0000000000000000e+00  0.0000000000000000e+00 0.0000000000000000e+00 0.0000000000000000e+00  0.0000000000000000e+00 0.0000000000000000e+00 0.0000000000000000e+00  0.0000000000000000e+00 0.0000000000000000e+00 0.0000000000000000e+00  0.0000000000000000e+00 0.0000000000000000e+00 0.0000000000000000e+00  0.0000000000000000e+00 0.0000000000000000e+00 0.0000000000000000e+00  0.0000000000000000e+00 0.0000000000000000e+00 0.0000000000000000e+00  0.0000000000000000e+00 0.0000000000000000e+00 0.0000000000000000e+00  -1.7860886473896845e-03 1.1987065756713504e+00 0.0000000000000000e+00  -2.5945433200704061e-02 1.1419588943582430e+00 0.0000000000000000e+00  4.8012430872099027e-01 8.8255269881245924e-01 0.0000000000000000e+00  2.2086274412063961e-01 5.3252465266242721e-01 0.0000000000000000e+00  2.7782705588797235e-01 3.5314078736312998e-01 0.0000000000000000e+00  1.1838999961970774e-01 2.2639208338598726e-01 0.0000000000000000e+00  1.4079559160740743e-01 1.3055937423503228e-01 0.0000000000000000e+00  8.2536379550831387e-02 1.2086201767521752e-02 0.0000000000000000e+00  8.1434649457571770e-02 -1.0140755893193902e-01 0.0000000000000000e+00  2.1463041403964891e-02 -1.6595235667619568e-01 0.0000000000000000e+00  5.4349448700051199e-02 -2.6444878703571484e-01 0.0000000000000000e+00  -1.4514956393287983e-02 -2.7538877896211222e-01 0.0000000000000000e+00  6.3688545358033991e-02 -3.7174510284988299e-01 0.0000000000000000e+00  1.3720288055778997e-02 -4.2581549510098049e-01 0.0000000000000000e+00  -1.5556753720916939e-02 -3.9786356888397817e-01 0.0000000000000000e+00  1.4966458705815059e-02 -3.9351944117394694e-01 0.0000000000000000e+00  -5.9338206330803105e-02 -4.1252998175697470e-01 0.0000000000000000e+00  -3.0839339976836817e-02 -4.5775066856431934e-01 0.0000000000000000e+00  -1.2389904980002941e-01 -4.4274194225778296e-01 0.0000000000000000e+00  -1.1064070147883356e-01 -5.5333890027755106e-01 0.0000000000000000e+00  -2.6000501370954404e-01 -4.0147236845958023e-01 0.0000000000000000e+00  -1.3084626276295488e-01 -6.8160110503523108e-01 0.0000000000000000e+00  -4.4896122702648650e-01 -5.1189536576088657e-01 0.0000000000000000e+00  -2.6383971680462032e-01 -4.1090371693643668e-01 0.0000000000000000e+00  -2.7977429265135767e-01 -1.8714714459673520e+00 0.0000000000000000e+00  -2.6678767882451465e-01 -7.2784573252685403e-01 0.0000000000000000e+00  6.6784694615840301e-02 -2.6928536489601029e-01 0.0000000000000000e+00  -1.9271151392731081e-01 -3.5335842818173668e-01 0.0000000000000000e+00  1.9413816631665209e-01 -1.0689102825259946e+00 0.0000000000000000e+00  -2.2695171005327169e-01 -1.1287277019807487e+00 0.0000000000000000e+00  1.5877517464968363e-01 -3.1505851261800472e-01 0.0000000000000000e+00  -7.2264270502524763e-02 -2.3693047919815732e-01 0.0000000000000000e+00  2.7466832064590635e-01 -1.0056322102124409e+00 0.0000000000000000e+00  -2.2547379029022638e-01 -1.1335289263242927e+00 0.0000000000000000e+00  1.2587006747299226e-01 -3.2675165453832361e-01 0.0000000000000000e+00  1.8978796042470492e-02 -6.8500900813649679e-01 0.0000000000000000e+00  -2.6288395889076534e-02 -9.2831330528251754e-01 0.0000000000000000e+00  -3.1195184665147374e-01 -3.1694278086529576e-01 0.0000000000000000e+00  1.1771180397302826e-01 -5.8322614216713253e-01 0.0000000000000000e+00  5.6158116519136181e-01 -2.4366514895690474e+00 0.0000000000000000e+00  -1.9778230598400576e-01 -1.6367690245472748e+00 0.0000000000000000e+00  4.4717656169931269e-01 -8.4750930057523977e-01 0.0000000000000000e+00  4.0451343954877922e-01 -8.9186062300866320e-01 0.0000000000000000e+00  4.4283470150992876e-01 -3.7580900686950824e-01 0.0000000000000000e+00  4.1651465275722416e-01 -8.6971889850795658e-01 0.0000000000000000e+00  1.4685221062594782e+00 -2.2057906957538411e+00 0.0000000000000000e+00  1.4811727794985883e+00 -1.1356590143518455e+00 0.0000000000000000e+00  3.4249834981929050e-01 -5.0861800050657557e-01 0.0000000000000000e+00  3.7436530917629807e-01 -5.4498739339736169e-01 0.0000000000000000e+00  4.6601427048276417e-01 -5.7376755821294156e-01 0.0000000000000000e+00  1.6803519585793636e-01 -6.2165937511795299e-01 0.0000000000000000e+00  3.7393603889397747e-01 -8.1516932515057938e-01 0.0000000000000000e+00  2.7940832516863978e-01 -8.1696783439953202e-01 0.0000000000000000e+00  7.7382140293993304e-02 -1.0747836961484705e+00 0.0000000000000000e+00  1.5196849916155436e-01 -1.0599146096187360e+00 0.0000000000000000e+00  -3.0622999610379864e-01 -9.0085437830356097e-01 0.0000000000000000e+00  -1.0298928212903340e-02 -6.9574802603454411e-01 0.0000000000000000e+00  -1.3727953855923108e-01 -6.4744756205693865e-01 0.0000000000000000e+00  9.1107959519854106e-02 -6.2555467080707738e-01 0.0000000000000000e+00  -1.2469441499453900e-02 -6.3935115087822425e-01 0.0000000000000000e+00  1.3454341382719434e-01 -7.0769743485057612e-01 0.0000000000000000e+00  -1.8066813613702584e-01 -6.8331969558906791e-01 0.0000000000000000e+00  1.6663869996195981e-02 -5.7468219905292561e-01 0.0000000000000000e+00  1.0705974048511543e-03 -5.8830736680657569e-01 0.0000000000000000e+00  1.5838117647603719e-01 -7.0518697404415287e-01 0.0000000000000000e+00  -2.0687284400432512e-01 -7.0440606942289152e-01 0.0000000000000000e+00  -4.0296519776608156e-02 -5.8627124604474645e-01 0.0000000000000000e+00  -4.0742917382701666e-02 -5.8107540751811571e-01 0.0000000000000000e+00  1.7407341725800446e-01 -7.2878588893366036e-01 0.0000000000000000e+00  -2.3177514901524351e-01 -7.8270511062181547e-01 0.0000000000000000e+00  -1.5351472135022487e-01 -6.8528536234515935e-01 0.0000000000000000e+00  -1.3803861116870345e-01 -6.1938535672889006e-01 0.0000000000000000e+00  -2.1842388231374546e-01 -6.2040085832309233e-01 0.0000000000000000e+00  -9.7512882196115008e-02 -5.2585566251091898e-01 0.0000000000000000e+00  -1.7118953737844525e-01 -5.0719085450763390e-01 0.0000000000000000e+00  -5.3153897591722739e-02 -4.8061588910114728e-01 0.0000000000000000e+00  -1.4192024491766281e-01 -4.6530958748727513e-01 0.0000000000000000e+00  -5.4314428698177458e-02 -4.3805147727579052e-01 0.0000000000000000e+00  -1.2185451220471755e-01 -4.1079945601030066e-01 0.0000000000000000e+00  -3.6514513967164056e-02 -4.0001754033141756e-01 0.0000000000000000e+00  -5.7296319638832569e-02 -3.8165011236747798e-01 0.0000000000000000e+00  -1.3761137566138024e-01 -3.7736805401666229e-01 0.0000000000000000e+00  -5.3782773688927366e-02 -3.0327432031846863e-01 0.0000000000000000e+00  -1.2904171354450689e-01 -2.6223021844840172e-01 0.0000000000000000e+00  -5.6883420556324046e-02 -1.8831417257943286e-01 0.0000000000000000e+00  -7.5182579594016946e-02 -1.3175779717850949e-01 0.0000000000000000e+00  -2.4734127012328258e-02 -2.6819030692779258e-02 0.0000000000000000e+00  -3.3666019610282108e-02 8.5774801373903503e-02 0.0000000000000000e+00  6.8413638199180546e-02 2.6338302973079364e-01 0.0000000000000000e+00  9.2682359959465374e-02 3.9355950878685253e-01 0.0000000000000000e+00  3.4453608371730016e-01 1.5024846417602128e-01 0.0000000000000000e+00  -4.1684131457899905e-02 7.2568819040538457e-01 0.0000000000000000e+00  -7.6382717301842451e-01 2.6029347486853776e+00 0.0000000000000000e+00  1.5787423081066557e-01 1.1494371047975713e+00 0.0000000000000000e+00  -8.1834703317968827e-02 -1.0173122913053645e+00 0.0000000000000000e+00  -2.2696344622792949e-02 5.9622956170375885e-01 0.0000000000000000e+00  -3.0806382941801356e-02 5.0614153624928693e-01 0.0000000000000000e+00  1.5611300381554211e-01 1.2310071624695229e+00 0.0000000000000000e+00  -2.2270218306793593e-01 -5.4628096545446903e-01 0.0000000000000000e+00  1.5056730663580392e-01 5.4390624385826658e-01 0.0000000000000000e+00  9.2326064991023346e-02 -2.9349872342234756e-01 0.0000000000000000e+00  1.0945496519148090e-02 6.0065083955653742e-01 0.0000000000000000e+00  5.4289937172791475e-03 5.1281613264493382e-02 0.0000000000000000e+00  2.8063802782138849e-03 1.7222619126674835e-01 0.0000000000000000e+00  -2.0766090605344811e-01 5.6011260277665575e-01 0.0000000000000000e+00  2.6971073740090574e-04 3.2745776545800881e-01 0.0000000000000000e+00  -2.7471209102494104e-01 5.4696671039586819e-01 0.0000000000000000e+00  -1.0726871922827968e-03 2.4168892188366681e-01 0.0000000000000000e+00  -1.4969288690656073e-02 3.5464972731561134e-01 0.0000000000000000e+00  2.6259152467103747e-01 5.5363013222069823e-01 0.0000000000000000e+00  2.7205699541880374e-01 5.1894928938955187e-01 0.0000000000000000e+00  -5.3003227831164054e-02 3.9652728263572395e-01 0.0000000000000000e+00  -2.8467757548493111e-01 4.9398502592255261e-01 0.0000000000000000e+00  2.2582180621085060e-03 4.2990935863741164e-01 0.0000000000000000e+00  1.2780365117725917e-01 7.4722252756192331e-01 0.0000000000000000e+00  1.2048704560668271e-02 3.5418913757529308e-01 0.0000000000000000e+00  3.4515098277880045e-03 2.5148766952086610e-01 0.0000000000000000e+00  -2.5869029985513015e-01 4.3620439147130052e-01 0.0000000000000000e+00  -1.8162622606747302e-02 -5.8049801201901813e-02 0.0000000000000000e+00  -3.0597971799258435e-02 3.1058678071292889e-01 0.0000000000000000e+00  -4.2095306257829207e-01 -8.9657043694672456e-01 0.0000000000000000e+00  3.0892317856261880e-02 3.2323416421274143e-01 0.0000000000000000e+00  4.7327959958067415e-03 6.9010432918603060e-01 0.0000000000000000e+00  -3.1002897917223899e-02 -2.3795052024715704e-01 0.0000000000000000e+00  3.2155170907158817e-02 9.3974800637226977e-02 0.0000000000000000e+00  -1.8607257530175340e-02 2.5979623594396256e-01 0.0000000000000000e+00  -5.7247151484018335e-02 3.2363012311318146e-01 0.0000000000000000e+00  1.1330832676992891e-02 2.4933682307139748e-01 0.0000000000000000e+00  1.3227562897807361e-02 5.1242576112355032e-01 0.0000000000000000e+00  3.3099603777364511e-02 1.5415392112909207e-01 0.0000000000000000e+00  3.6189073286427197e-02 2.7718513911833143e-01 0.0000000000000000e+00  1.3330205246422710e-02 2.7143840247300277e-01 0.0000000000000000e+00  2.1190529492189795e-02 5.1545802247838124e-01 0.0000000000000000e+00  8.3525770512217712e-02 3.1086327716668005e-01 0.0000000000000000e+00  -1.8001486805476564e-02 5.4707582707416669e-01 0.0000000000000000e+00  -1.9723125233686606e-02 -7.3677588719066422e-01 0.0000000000000000e+00  7.4458731643022302e-01 -4.2316737686866901e-01 0.0000000000000000e+00  -4.3489456854601405e-01 8.2993447406560694e-01 0.0000000000000000e+00  -2.2219031042123617e-02 -8.1653553652450805e-01 0.00000