<?xml version="1.0"?>
<VTKFile type="UnstructuredGrid"  version="0.1"  >
<UnstructuredGrid>
<Piece  NumberOfPoints="1419" NumberOfCells="2698">
<Points>
<DataArray  type="Float64"  NumberOfComponents="3"  format="ascii">1.406308185888815e-07 -2.614398529441695e-06 0  1.699218041610773e-07 0.4099973742217607 0  2.500000351996555 -3.981011518655115e-06 0  2.500000351996595 0.4099960189885166 0  0.6000003928250105 0.1899958892092617 0  0.6000004345003983 0.2099958844694672 0  0.25 0.2 0  0.1500001532310386 0.199997405638949 0  0.2489897948556636 0.21 0  0.2489897948556636 0.19 0  0.6000004245591968 0.1999958720067829 0  1.695537131016103e-07 0.3807116607566388 0  1.685109099653093e-07 0.351425948701638 0  1.667820795963611e-07 0.3221402377200697 0  1.644060276508164e-07 0.2928545270880818 0  1.615221779073302e-07 0.2635688162526394 0  1.582534875764539e-07 0.2342831048445313 0  1.54753948837349e-07 0.2049973923089504 0  1.512952882299393e-07 0.1757116787488493 0  1.481287332434355e-07 0.1464259640664281 0  1.454006115149986e-07 0.1171402484765983 0  1.433108469726212e-07 0.08785453232594652 0  1.417954560387825e-07 0.05856881611186218 0  1.409105027099519e-07 0.02928310038761861 0  0.03015457793942922 -2.614961526065379e-06 0  0.06140015925229432 -2.616998125103818e-06 0  0.09377637854972995 -2.621603164107464e-06 0  0.1273241313802196 -2.630687778689357e-06 0  0.1620858192867831 -2.64769085805361e-06 0  0.1981053747520991 -2.681092597016752e-06 0  0.2354283156796863 -2.743727144426864e-06 0  0.274101792884765 -2.844327789667408e-06 0  0.3141746956706943 -2.984789570825472e-06 0  0.3556976510025847 -3.160991058683324e-06 0  0.3987231336870353 -3.352092613500592e-06 0  0.4433055121416727 -3.535168370737475e-06 0  0.4895011139197347 -3.694143459750829e-06 0  0.5373683306338579 -3.815208561939723e-06 0  0.586967631670572 -3.894972959420341e-06 0  0.638361686293861 -3.94287496958785e-06 0  0.6916154462919876 -3.966193844555896e-06 0  0.7467962002230429 -3.976332556318874e-06 0  0.8039736918933523 -3.980396103800317e-06 0  0.8632201622091832 -3.981698084636382e-06 0  0.9246104825304747 -3.981881259497184e-06 0  0.9882222318111372 -3.981704337937458e-06 0  1.054135796818526 -3.981495900104602e-06 0  1.122434452103368 -3.981323941815635e-06 0  1.193204528890494 -3.981199541501333e-06 0  1.266535441738305 -3.981120237626662e-06 0  1.342519867965655 -3.981073578382939e-06 0  1.421253800458069 -3.981045940597748e-06 0  1.502836741080536 -3.981029721237838e-06 0  1.587371791743843 -3.981020984306948e-06 0  1.674965770768031 -3.981016359210249e-06 0  1.765729353819202 -3.981013897313307e-06 0  1.859777260875213 -3.981012686923889e-06 0  1.957228329482966 -3.981012052217614e-06 0  2.0582056818662 -3.981011763260536e-06 0  2.162836943186387 -3.98101161578941e-06 0  2.271254309287375 -3.981011553298924e-06 0  2.383594798799968 -3.981011526555057e-06 0  2.500000351996558 0.1024960189882475 0  2.500000351996575 0.204996018987973 0  2.50000035199659 0.3074960189882298 0  2.383594798800262 0.4099960189885243 0  2.271254309287952 0.409996018988552 0  2.162836943187317 0.4099960189886172 0  2.058205681867664 0.4099960189887579 0  1.957228329485303 0.4099960189890438 0  1.859777260879292 0.4099960189897096 0  1.765729353826364 0.4099960189909162 0  1.674965770781436 0.4099960189934802 0  1.58737179176864 0.4099960189981188 0  1.502836741126815 0.4099960190069551 0  1.421253800544939 0.4099960190240365 0  1.342519868121508 0.4099960190530576 0  1.266535442012693 0.4099960191038095 0  1.193204529377291 0.4099960191993757 0  1.122434452948665 0.4099960193707496 0  1.05413579821916 0.409996019657284 0  0.9882222341526982 0.4099960202245896 0  0.924610486305399 0.4099960212662667 0  0.8632201682634304 0.4099960232612015 0  0.8039737013654592 0.409996027254716 0  0.7467962146794749 0.4099960352799589 0  0.6916154674383326 0.409996050970849 0  0.6383617157652145 0.4099960817176554 0  0.5869676709810713 0.4099961350838804 0  0.5373683794647877 0.409996218599092 0  0.4895011712333904 0.4099963392573246 0  0.4433055770163866 0.4099964912748292 0  0.3987232043282846 0.4099966635412521 0  0.3556977246825742 0.4099968408099777 0  0.3141747693545648 0.4099970044592416 0  0.2741018625936081 0.4099971386486458 0  0.23542837922366 0.4099972340547712 0  0.1981054306467526 0.409997296286894 0  0.1620858673676604 0.4099973325902483 0  0.1273241725995181 0.4099973527452018 0  0.09377641436946378 0.4099973643246499 0  0.06140019135084246 0.4099973703286356 0  0.03015460786099176 0.4099973734443055 0  0.2497468076502589 0.2050254481002335 0  0.2497468076502614 0.1949745518997913 0  0.2469965605213538 0.182930463841035 0  0.2439894304669196 0.1762299437509756 0  0.2400332873273565 0.1700423738931124 0  0.235213481500559 0.1645011508251931 0  0.2296339953234837 0.1597257665740229 0  0.2234151988733545 0.1558192263700822 0  0.2166912542851725 0.1528657959421555 0  0.2096072213083487 0.1509291837451436 0  0.2023159283373834 0.150051161068608 0  0.1949746744418948 0.1502506688028743 0  0.187741836979789 0.151523398280927 0  0.1807734539956886 0.1538418909657789 0  0.1742198585676882 0.1571561263857526 0  0.1682224350399448 0.1613946040177938 0  0.1629105693968531 0.1664658835133614 0  0.1583988574361436 0.1722605590116733 0  0.1547846330098008 0.1786536181150788 0  0.1521458677633782 0.1855071396336893 0  0.1505394894252454 0.1926732684359911 0  0.1505394947122919 0.2073215434914352 0  0.1521458783897217 0.2144876743262641 0  0.1547846488594855 0.2213411993680233 0  0.1583988785915575 0.2277342639248248 0  0.1629105957703895 0.2335289471591947 0  0.1682224667266769 0.2386002378103355 0  0.174219895451326 0.2428387304384398 0  0.1807734961740069 0.2461529866455711 0  0.187741884398681 0.2484715078710585 0  0.1949747271392997 0.249744276615595 0  0.2023159862483495 0.2499438361570452 0  0.2096072845529408 0.2490658855901819 0  0.2166913226374919 0.247129367995498 0  0.2234152722628462 0.2441760690975788 0  0.2296340735980496 0.2402697062686593 0  0.2352135639297233 0.2354945708082238 0  0.2400333726676126 0.2299536925039954 0  0.2439895151401121 0.2237666590168186 0  0.2469966340483023 0.2170670426990624 0  0.2564582162185762 0.2099988002045844 0  0.26392655422108 0.2099983998911453 0  0.2713948958219 0.2099981407185562 0  0.278863206066588 0.2099979351180274 0  0.2863315189923993 0.2099977603041873 0  0.2937998200170061 0.2099976091150272 0  0.3012681250966855 0.2099974754412798 0  0.308736426140803 0.2099973547198148 0  0.3162047313784946 0.2099972429498413 0  0.32367303135345 0.2099971399097069 0  0.3311413388835477 0.2099970445115542 0  0.3386096382549687 0.2099969561499618 0  0.3460779460412292 0.2099968699259115 0  0.3535462463360474 0.2099967787185822 0  0.3610145457084102 0.2099967236436564 0  0.3684828503655724 0.2099966626127709 0  0.3759511442128678 0.2099965992236755 0  0.3834194463650273 0.2099965385317015 0  0.3908877376451359 0.2099964790634805 0  0.3983560385975327 0.2099964206836416 0  0.4058243271633437 0.2099963642145474 0  0.4132926270785442 0.2099963000932897 0  0.4207609124605227 0.2099962235710894 0  0.4282292126066284 0.2099961901351101 0  0.4356975225499551 0.2099961374249885 0  0.4431658260389326 0.2099960967349309 0  0.450634145023154 0.2099960471950751 0  0.4581024555264134 0.209996014393124 0  0.465570788970873 0.2099959624660027 0  0.4730391059610264 0.2099959215628366 0  0.480507439667256 0.2099959201863435 0  0.4879757525264655 0.2099959163031817 0  0.4954440901177238 0.2099958439156055 0  0.5029124000178129 0.2099958167666507 0  0.5103807361886441 0.2099958562840663 0  0.5178490461205465 0.209995832652076 0  0.5253173721462454 0.2099958048652214 0  0.5327856861190213 0.2099957894431523 0  0.540254020029495 0.2099957831887401 0  0.5477223358581833 0.2099957768989982 0  0.5551906640279349 0.2099957842107405 0  0.5626589768526422 0.2099957702080426 0  0.5701272676783332 0.2099958066762019 0  0.5775955720968492 0.2099958334339203 0  0.5850638644952167 0.2099958364543741 0  0.5925321594503662 0.209995852346944 0  0.6000004370293882 0.2049958727021908 0  0.6000004046283853 0.1949958810306059 0  0.5925320921615193 0.1899958674959139 0  0.5850637961656429 0.189995838659116 0  0.577595483391525 0.1899958122209428 0  0.5701271810267985 0.1899957869065505 0  0.5626588701577705 0.1899957522672128 0  0.5551905535379497 0.1899957584062709 0  0.5477222491769762 0.1899957514418179 0  0.540253923043894 0.1899957479190366 0  0.5327856162702567 0.1899957532014363 0  0.525317288484898 0.1899957644995058 0  0.5178489832023007 0.1899957761337452 0  0.5103806652794921 0.1899957835961049 0  0.5029123540815975 0.1899957914934934 0  0.4954440123736381 0.1899958091827809 0  0.4879757015446768 0.1899958361062516 0  0.4805073817616076 0.1899958633773486 0  0.4730390733185282 0.1899958891033231 0  0.4655707377135959 0.1899959201876157 0  0.4581024297027717 0.1899959606111475 0  0.4506341073125881 0.1899960076743563 0  0.4431658038029246 0.1899960575076912 0  0.4356974824696767 0.1899961100645592 0  0.4282291788909507 0.1899961621126143 0  0.4207608652898288 0.1899962031134656 0  0.4132925567562764 0.1899962788799729 0  0.4058242572746865 0.189996347128518 0  0.3983559483198806 0.1899964099401513 0  0.3908876476767293 0.1899964725351943 0  0.3834193384720494 0.1899965348110512 0  0.3759510367887437 0.1899965977221539 0  0.3684827282791283 0.1899966618858236 0  0.3610144276695934 0.1899967240855212 0  0.3535461188710783 0.1899967825870356 0  0.3460778093728814 0.189996872444147 0  0.3386095068926545 0.1899969601181505 0  0.331141198029805 0.1899970497979785 0  0.323672897603277 0.1899971448129701 0  0.3162045927450869 0.1899972474479765 0  0.3087362934741601 0.1899973575861865 0  0.3012679912787878 0.189997477879178 0  0.2937996899362644 0.1899976126304347 0  0.2863313820200276 0.1899977626489731 0  0.2788630774745502 0.1899979310155725 0  0.2713947464942357 0.1899981475210349 0  0.2639264272474595 0.189998430822003 0  0.25645810498357 0.189998807936882 0  0.260
[...]
<PointData  Vectors="f_30-0"> 
<DataArray  type="Float64"  Name="f_30-0"  NumberOfComponents="3" format="ascii">0.0000000000000000e+00 0.0000000000000000e+00 0.0000000000000000e+00  0.0000000000000000e+00 0.0000000000000000e+00 0.0000000000000000e+00  0.0000000000000000e+00 0.0000000000000000e+00 0.0000000000000000e+00  0.0000000000000000e+00 0.0000000000000000e+00 0.0000000000000000e+00  6.8353437198284808e-02 -1.4023453764348218e-01 0.0000000000000000e+00  1.5512157777724184e-01 -1.2673552529711740e-01 0.0000000000000000e+00  0.0000000000000000e+00 0.0000000000000000e+00 0.0000000000000000e+00  0.0000000000000000e+00 0.0000000000000000e+00 0.0000000000000000e+00  0.0000000000000000e+00 0.0000000000000000e+00 0.0000000000000000e+00  0.0000000000000000e+00 0.0000000000000000e+00 0.0000000000000000e+00  2.5463167417336308e-01 -2.8468595800199575e-01 0.0000000000000000e+00  0.0000000000000000e+00 0.0000000000000000e+00 0.0000000000000000e+00  0.0000000000000000e+00 0.0000000000000000e+00 0.0000000000000000e+00  0.0000000000000000e+00 0.0000000000000000e+00 0.0000000000000000e+00  0.0000000000000000e+00 0.0000000000000000e+00 0.0000000000000000e+00  0.0000000000000000e+00 0.0000000000000000e+00 0.0000000000000000e+00  0.0000000000000000e+00 0.0000000000000000e+00 0.0000000000000000e+00  0.0000000000000000e+00 0.0000000000000000e+00 0.0000000000000000e+00  0.0000000000000000e+00 0.0000000000000000e+00 0.0000000000000000e+00  0.0000000000000000e+00 0.0000000000000000e+00 0.0000000000000000e+00  0.0000000000000000e+00 0.0000000000000000e+00 0.0000000000000000e+00  0.0000000000000000e+00 0.0000000000000000e+00 0.0000000000000000e+00  0.0000000000000000e+00 0.0000000000000000e+00 0.0000000000000000e+00  0.0000000000000000e+00 0.0000000000000000e+00 0.0000000000000000e+00  0.0000000000000000e+00 0.0000000000000000e+00 0.0000000000000000e+00  0.0000000000000000e+00 0.0000000000000000e+00 0.0000000000000000e+00  0.0000000000000000e+00 0.0000000000000000e+00 0.0000000000000000e+00  0.0000000000000000e+00 0.0000000000000000e+00 0.0000000000000000e+00  0.0000000000000000e+00 0.0000000000000000e+00 0.0000000000000000e+00  0.0000000000000000e+00 0.0000000000000000e+00 0.0000000000000000e+00  0.0000000000000000e+00 0.0000000000000000e+00 0.0000000000000000e+00  0.0000000000000000e+00 0.0000000000000000e+00 0.0000000000000000e+00  0.0000000000000000e+00 0.0000000000000000e+00 0.0000000000000000e+00  0.0000000000000000e+00 0.0000000000000000e+00 0.0000000000000000e+00  0.0000000000000000e+00 0.0000000000000000e+00 0.0000000000000000e+00  0.0000000000000000e+00 0.0000000000000000e+00 0.0000000000000000e+00  0.0000000000000000e+00 0.0000000000000000e+00 0.0000000000000000e+00  0.0000000000000000e+00 0.0000000000000000e+00 0.0000000000000000e+00  0.0000000000000000e+00 0.0000000000000000e+00 0.0000000000000000e+00  0.0000000000000000e+00 0.0000000000000000e+00 0.0000000000000000e+00  0.0000000000000000e+00 0.0000000000000000e+00 0.0000000000000000e+00  0.0000000000000000e+00 0.0000000000000000e+00 0.0000000000000000e+00  0.0000000000000000e+00 0.0000000000000000e+00 0.0000000000000000e+00  0.0000000000000000e+00 0.0000000000000000e+00 0.0000000000000000e+00  0.0000000000000000e+00 0.0000000000000000e+00 0.0000000000000000e+00  0.0000000000000000e+00 0.0000000000000000e+00 0.0000000000000000e+00  0.0000000000000000e+00 0.0000000000000000e+00 0.0000000000000000e+00  0.0000000000000000e+00 0.0000000000000000e+00 0.0000000000000000e+00  0.0000000000000000e+00 0.0000000000000000e+00 0.0000000000000000e+00  0.0000000000000000e+00 0.0000000000000000e+00 0.0000000000000000e+00  0.0000000000000000e+00 0.0000000000000000e+00 0.0000000000000000e+00  0.0000000000000000e+00 0.0000000000000000e+00 0.0000000000000000e+00  0.0000000000000000e+00 0.0000000000000000e+00 0.0000000000000000e+00  0.0000000000000000e+00 0.0000000000000000e+00 0.0000000000000000e+00  0.0000000000000000e+00 0.0000000000000000e+00 0.0000000000000000e+00  0.0000000000000000e+00 0.0000000000000000e+00 0.0000000000000000e+00  0.0000000000000000e+00 0.0000000000000000e+00 0.0000000000000000e+00  0.0000000000000000e+00 0.0000000000000000e+00 0.0000000000000000e+00  0.0000000000000000e+00 0.0000000000000000e+00 0.0000000000000000e+00  0.0000000000000000e+00 0.0000000000000000e+00 0.0000000000000000e+00  0.0000000000000000e+00 0.0000000000000000e+00 0.0000000000000000e+00  0.0000000000000000e+00 0.0000000000000000e+00 0.0000000000000000e+00  1.0690680697397996e-08 3.7679890996259498e-09 0.0000000000000000e+00  -2.2487983720588195e-10 5.5243330741634105e-09 0.0000000000000000e+00  -1.0981973700968434e-08 4.2653477340475502e-09 0.0000000000000000e+00  0.0000000000000000e+00 0.0000000000000000e+00 0.0000000000000000e+00  0.0000000000000000e+00 0.0000000000000000e+00 0.0000000000000000e+00  0.0000000000000000e+00 0.0000000000000000e+00 0.0000000000000000e+00  0.0000000000000000e+00 0.0000000000000000e+00 0.0000000000000000e+00  0.0000000000000000e+00 0.0000000000000000e+00 0.0000000000000000e+00  0.0000000000000000e+00 0.0000000000000000e+00 0.0000000000000000e+00  0.0000000000000000e+00 0.0000000000000000e+00 0.0000000000000000e+00  0.0000000000000000e+00 0.0000000000000000e+00 0.0000000000000000e+00  0.0000000000000000e+00 0.0000000000000000e+00 0.0000000000000000e+00  0.0000000000000000e+00 0.0000000000000000e+00 0.0000000000000000e+00  0.0000000000000000e+00 0.0000000000000000e+00 0.0000000000000000e+00  0.0000000000000000e+00 0.0000000000000000e+00 0.0000000000000000e+00  0.0000000000000000e+00 0.0000000000000000e+00 0.0000000000000000e+00  0.0000000000000000e+00 0.0000000000000000e+00 0.0000000000000000e+00  0.0000000000000000e+00 0.0000000000000000e+00 0.0000000000000000e+00  0.0000000000000000e+00 0.0000000000000000e+00 0.0000000000000000e+00  0.0000000000000000e+00 0.0000000000000000e+00 0.0000000000000000e+00  0.0000000000000000e+00 0.0000000000000000e+00 0.0000000000000000e+00  0.0000000000000000e+00 0.0000000000000000e+00 0.0000000000000000e+00  0.0000000000000000e+00 0.0000000000000000e+00 0.0000000000000000e+00  0.0000000000000000e+00 0.0000000000000000e+00 0.0000000000000000e+00  0.0000000000000000e+00 0.0000000000000000e+00 0.0000000000000000e+00  0.0000000000000000e+00 0.0000000000000000e+00 0.0000000000000000e+00  0.0000000000000000e+00 0.0000000000000000e+00 0.0000000000000000e+00  0.0000000000000000e+00 0.0000000000000000e+00 0.0000000000000000e+00  0.0000000000000000e+00 0.0000000000000000e+00 0.0000000000000000e+00  0.0000000000000000e+00 0.0000000000000000e+00 0.0000000000000000e+00  0.0000000000000000e+00 0.0000000000000000e+00 0.0000000000000000e+00  0.0000000000000000e+00 0.0000000000000000e+00 0.0000000000000000e+00  0.0000000000000000e+00 0.0000000000000000e+00 0.0000000000000000e+00  0.0000000000000000e+00 0.0000000000000000e+00 0.0000000000000000e+00  0.0000000000000000e+00 0.0000000000000000e+00 0.0000000000000000e+00  0.0000000000000000e+00 0.0000000000000000e+00 0.0000000000000000e+00  0.0000000000000000e+00 0.0000000000000000e+00 0.0000000000000000e+00  0.0000000000000000e+00 0.0000000000000000e+00 0.0000000000000000e+00  0.0000000000000000e+00 0.0000000000000000e+00 0.0000000000000000e+00  0.0000000000000000e+00 0.0000000000000000e+00 0.0000000000000000e+00  0.0000000000000000e+00 0.0000000000000000e+00 0.0000000000000000e+00  0.0000000000000000e+00 0.0000000000000000e+00 0.0000000000000000e+00  0.0000000000000000e+00 0.0000000000000000e+00 0.0000000000000000e+00  0.0000000000000000e+00 0.0000000000000000e+00 0.0000000000000000e+00  0.0000000000000000e+00 0.0000000000000000e+00 0.0000000000000000e+00  0.0000000000000000e+00 0.0000000000000000e+00 0.0000000000000000e+00  0.0000000000000000e+00 0.0000000000000000e+00 0.0000000000000000e+00  0.0000000000000000e+00 0.0000000000000000e+00 0.0000000000000000e+00  0.0000000000000000e+00 0.0000000000000000e+00 0.0000000000000000e+00  0.0000000000000000e+00 0.0000000000000000e+00 0.0000000000000000e+00  0.0000000000000000e+00 0.0000000000000000e+00 0.0000000000000000e+00  0.0000000000000000e+00 0.0000000000000000e+00 0.0000000000000000e+00  0.0000000000000000e+00 0.0000000000000000e+00 0.0000000000000000e+00  0.0000000000000000e+00 0.0000000000000000e+00 0.0000000000000000e+00  0.0000000000000000e+00 0.0000000000000000e+00 0.0000000000000000e+00  0.0000000000000000e+00 0.0000000000000000e+00 0.0000000000000000e+00  0.0000000000000000e+00 0.0000000000000000e+00 0.0000000000000000e+00  0.0000000000000000e+00 0.0000000000000000e+00 0.0000000000000000e+00  0.0000000000000000e+00 0.0000000000000000e+00 0.0000000000000000e+00  0.0000000000000000e+00 0.0000000000000000e+00 0.0000000000000000e+00  0.0000000000000000e+00 0.0000000000000000e+00 0.0000000000000000e+00  0.0000000000000000e+00 0.0000000000000000e+00 0.0000000000000000e+00  0.0000000000000000e+00 0.0000000000000000e+00 0.0000000000000000e+00  0.0000000000000000e+00 0.0000000000000000e+00 0.0000000000000000e+00  0.0000000000000000e+00 0.0000000000000000e+00 0.0000000000000000e+00  0.0000000000000000e+00 0.0000000000000000e+00 0.0000000000000000e+00  0.0000000000000000e+00 0.0000000000000000e+00 0.0000000000000000e+00  0.0000000000000000e+00 0.0000000000000000e+00 0.0000000000000000e+00  0.0000000000000000e+00 0.0000000000000000e+00 0.0000000000000000e+00  0.0000000000000000e+00 0.0000000000000000e+00 0.0000000000000000e+00  0.0000000000000000e+00 0.0000000000000000e+00 0.0000000000000000e+00  0.0000000000000000e+00 0.0000000000000000e+00 0.0000000000000000e+00  0.0000000000000000e+00 0.0000000000000000e+00 0.0000000000000000e+00  0.0000000000000000e+00 0.0000000000000000e+00 0.0000000000000000e+00  0.0000000000000000e+00 0.0000000000000000e+00 0.0000000000000000e+00  0.0000000000000000e+00 0.0000000000000000e+00 0.0000000000000000e+00  0.0000000000000000e+00 0.0000000000000000e+00 0.0000000000000000e+00  0.0000000000000000e+00 0.0000000000000000e+00 0.0000000000000000e+00  0.0000000000000000e+00 0.0000000000000000e+00 0.0000000000000000e+00  0.0000000000000000e+00 0.0000000000000000e+00 0.0000000000000000e+00  0.0000000000000000e+00 0.0000000000000000e+00 0.0000000000000000e+00  9.2356510743059547e-02 7.8597996213864552e-01 0.0000000000000000e+00  6.0499662420683130e-02 7.3957680868555131e-01 0.0000000000000000e+00  2.7106213376485666e-01 5.9580959276703249e-01 0.0000000000000000e+00  1.2573058107527615e-01 3.6993271792822047e-01 0.0000000000000000e+00  1.6375443031248310e-01 2.2944141724115075e-01 0.0000000000000000e+00  6.8130210738086810e-02 9.7372698204788985e-02 0.0000000000000000e+00  8.6134459067239488e-02 7.8205556666558033e-03 0.0000000000000000e+00  2.0600447549407323e-02 -9.0479660201425657e-02 0.0000000000000000e+00  5.0465173303900449e-02 -1.6610499884918792e-01 0.0000000000000000e+00  -6.7364909428528890e-03 -2.0422262673105857e-01 0.0000000000000000e+00  4.4966960875909026e-02 -2.7314316679185979e-01 0.0000000000000000e+00  -1.5857639300853221e-02 -2.7786816224704097e-01 0.0000000000000000e+00  6.4973340036136293e-02 -3.4192117187380822e-01 0.0000000000000000e+00  1.8003680865553713e-02 -3.7435608297089001e-01 0.0000000000000000e+00  5.9080347416289973e-03 -3.4452954306358152e-01 0.0000000000000000e+00  3.8805866146148907e-02 -3.0797427033902380e-01 0.0000000000000000e+00  -1.1130502098833600e-02 -3.4015177383617157e-01 0.0000000000000000e+00  2.2927616571434956e-02 -3.3355587422117716e-01 0.0000000000000000e+00  -4.2353955140682568e-02 -3.4009306315159210e-01 0.0000000000000000e+00  3.1628588452384146e-03 -3.8582294412354018e-01 0.0000000000000000e+00  -1.0688534327456009e-01 -3.4716998703221869e-01 0.0000000000000000e+00  -9.0394473593900636e-03 -4.3906173241279933e-01 0.0000000000000000e+00  -1.4202030797124340e-01 -4.8449353999662864e-01 0.0000000000000000e+00  -1.7982211430850992e-01 -4.5817077506144532e-01 0.0000000000000000e+00  -1.6869343475008758e-01 -7.5671331279533938e-01 0.0000000000000000e+00  -1.8482070578210474e-01 -5.9762926995060939e-01 0.0000000000000000e+00  -1.6773888910641638e-01 -8.3003798240226490e-01 0.0000000000000000e+00  -2.5172013702896617e-01 -5.9495881661272609e-01 0.0000000000000000e+00  4.8590614321127143e-02 -9.2244136169635005e-01 0.0000000000000000e+00  -1.5618002548424542e-01 -1.1680288097754132e+00 0.0000000000000000e+00  1.3967643743294591e-02 -6.7870404598615530e-01 0.0000000000000000e+00  -1.4359745501754595e-01 -1.9086350486916329e-01 0.0000000000000000e+00  3.4721362958367935e-01 -1.0078328005391666e+00 0.0000000000000000e+00  -2.5740012195739065e-01 -1.2155107746945679e+00 0.0000000000000000e+00  1.8798165449526635e-01 -2.2362704505040304e-01 0.0000000000000000e+00  3.9395333001228980e-02 -5.2495462902045109e-01 0.0000000000000000e+00  1.0654980497156816e-01 -7.4165115095901102e-01 0.0000000000000000e+00  -3.3021168726139478e-02 -8.2499547454959044e-01 0.0000000000000000e+00  2.2869363099884238e-01 -7.8255584163960057e-01 0.0000000000000000e+00  1.2792044878706454e-01 -8.4071776535517773e-01 0.0000000000000000e+00  2.7486915631024467e-01 -5.2180496215253902e-01 0.0000000000000000e+00  2.1998767817682757e-01 -5.4026366787300673e-01 0.0000000000000000e+00  1.3698333461173948e-01 -4.7625176539823616e-01 0.0000000000000000e+00  2.3531898630662121e-01 -2.7158680009804104e-01 0.0000000000000000e+00  2.1136385308671121e-01 -5.4914679636000918e-01 0.0000000000000000e+00  3.9314689190898616e-01 -6.4322143918764729e-01 0.0000000000000000e+00  3.7966298980578556e-01 -3.9269872896915764e-01 0.0000000000000000e+00  8.0709944078984977e-02 -2.2393431431954502e-01 0.0000000000000000e+00  1.0788558449199855e-01 -2.5577425050632485e-01 0.0000000000000000e+00  2.0771594852489988e-01 -3.4556199831677242e-01 0.0000000000000000e+00  7.9114464810938964e-02 -3.9261322797770359e-01 0.0000000000000000e+00  1.7769488202900049e-01 -4.8441433519253363e-01 0.0000000000000000e+00  1.0053903383544986e-01 -4.8110880359751218e-01 0.0000000000000000e+00  5.0836975830287442e-02 -5.5498693495265838e-01 0.0000000000000000e+00  2.0738739301610534e-01 -6.1489803048608760e-01 0.0000000000000000e+00  -1.2814379509554096e-02 -6.5455119462894784e-01 0.0000000000000000e+00  1.2300682452230970e-01 -6.5600521756307728e-01 0.0000000000000000e+00  -9.0648074501327142e-02 -6.2257698779855186e-01 0.0000000000000000e+00  1.1698109814875368e-01 -5.7227013815976879e-01 0.0000000000000000e+00  5.4318466214090658e-02 -6.0226165565121514e-01 0.0000000000000000e+00  1.9206175304661932e-01 -7.1897610886523977e-01 0.0000000000000000e+00  -1.6126914431719255e-01 -7.1577278861725546e-01 0.0000000000000000e+00  1.4836878323096743e-02 -6.3036363843365806e-01 0.0000000000000000e+00  -5.1460140776183147e-02 -6.5218427816513569e-01 0.0000000000000000e+00  1.2944602140338629e-01 -7.4267125303678894e-01 0.0000000000000000e+00  -1.7214974127456045e-01 -7.4473203904892848e-01 0.0000000000000000e+00  -1.5165910178876951e-02 -6.7746980082488417e-01 0.0000000000000000e+00  -1.6758255435735997e-01 -6.3775976565456793e-01 0.0000000000000000e+00  -1.9638639753073038e-03 -6.0048263633810506e-01 0.0000000000000000e+00  -1.7085026095218089e-01 -5.5682119224603999e-01 0.0000000000000000e+00  -3.1215881189586629e-02 -5.0791014557023129e-01 0.0000000000000000e+00  -8.0473080094496954e-02 -4.5882278945424054e-01 0.0000000000000000e+00  -1.2515912293963685e-01 -4.5109588206634943e-01 0.0000000000000000e+00  -4.1843225989448472e-02 -3.8207964599274324e-01 0.0000000000000000e+00  -9.8022772958050453e-02 -3.7499180724459247e-01 0.0000000000000000e+00  -1.9428859317369436e-02 -3.6072068077457520e-01 0.0000000000000000e+00  -8.0918809777295625e-02 -3.5407613162732715e-01 0.0000000000000000e+00  -1.7081631634757698e-02 -3.4370057010038113e-01 0.0000000000000000e+00  -6.9156701096067086e-02 -3.3067969258892854e-01 0.0000000000000000e+00  -6.0196307598304050e-03 -3.3865074893247543e-01 0.0000000000000000e+00  -2.8643613689166181e-02 -3.3228177031405864e-01 0.0000000000000000e+00  -1.0203505583292673e-01 -3.3836910897118838e-01 0.0000000000000000e+00  -2.4336876814981090e-02 -2.8835602023653772e-01 0.0000000000000000e+00  -1.0508237853926929e-01 -2.6521162832535411e-01 0.0000000000000000e+00  -3.6654440442799342e-02 -2.1663550097354101e-01 0.0000000000000000e+00  -8.4392214684264347e-02 -1.7286700684938919e-01 0.0000000000000000e+00  -3.1404964596356791e-02 -1.0280513181659082e-01 0.0000000000000000e+00  -6.0161314379697940e-02 -2.2155766682296053e-02 0.0000000000000000e+00  8.0267338946656431e-03 9.4653373016086992e-02 0.0000000000000000e+00  -8.3601005505322228e-03 2.2190630876497508e-01 0.0000000000000000e+00  1.0761025642213563e-01 2.3544437930307069e-01 0.0000000000000000e+00  -1.2998750672191828e-01 6.1384023872488347e-01 0.0000000000000000e+00  -2.8689110205255502e-01 1.1993006928205485e+00 0.0000000000000000e+00  -2.4422406883114017e-01 7.7465751122637250e-01 0.0000000000000000e+00  -1.0397081568555232e-03 -5.3628426442985522e-01 0.0000000000000000e+00  -9.8008619814925740e-03 2.7902347418300011e-01 0.0000000000000000e+00  6.8358855228972384e-03 3.2395758928747348e-01 0.0000000000000000e+00  -1.7206957778983600e-03 5.1517332431758955e-01 0.0000000000000000e+00  -1.0659343249431581e-01 -3.8962746018910910e-01 0.0000000000000000e+00  2.7017762028085517e-02 5.6213282238102558e-01 0.0000000000000000e+00  2.6315117593841149e-02 -1.5947932165465475e-01 0.0000000000000000e+00  1.3034371651771912e-01 5.0625177919632958e-01 0.0000000000000000e+00  4.6893527378147719e-03 1.0637160479978350e-01 0.0000000000000000e+00  -2.5309311070396051e-04 1.8866123198496101e-01 0.0000000000000000e+00  -2.6346497571554367e-01 5.6291141083442431e-01 0.0000000000000000e+00  3.7530866321194749e-03 2.6871925712382999e-01 0.0000000000000000e+00  -1.9234576831885800e-01 6.2422294933043765e-01 0.0000000000000000e+00  -3.3569675813570400e-03 2.2896513093660062e-01 0.0000000000000000e+00  -4.0813429813331926e-03 2.7380922196232110e-01 0.0000000000000000e+00  7.0562690640198975e-02 5.8270629502486571e-01 0.0000000000000000e+00  2.7122590266212859e-01 5.3486728283757823e-01 0.0000000000000000e+00  -1.9060672674785006e-02 2.9312627904339378e-01 0.0000000000000000e+00  -4.5500273598523176e-02 5.2949993415658869e-01 0.0000000000000000e+00  -1.2347289898579806e-03 3.1781573730158202e-01 0.0000000000000000e+00  -1.3403152119508065e-02 4.4947683395043525e-01 0.0000000000000000e+00  1.3999022131582441e-02 3.0377179887749939e-01 0.0000000000000000e+00  2.4541531774907956e-04 2.1990064815964466e-01 0.0000000000000000e+00  -1.3153760110942594e-02 3.4214401465319272e-01 0.0000000000000000e+00  1.6920297908348996e-03 1.2252917462200582e-02 0.0000000000000000e+00  -1.1750876836866009e-02 2.3269365175987780e-01 0.0000000000000000e+00  -1.4042798639425641e-01 -5.2132043773594450e-01 0.0000000000000000e+00  2.1200743836582030e-02 3.8414494283674461e-01 0.0000000000000000e+00  -4.0630116558292351e-02 4.2056140720702739e-01 0.0000000000000000e+00  1.1548983747735180e-02 -1.7822449085283132e-01 0.0000000000000000e+00  2.3501701986437359e-02 1.1332099524318662e-01 0.0000000000000000e+00  2.1980444713033769e-02 3.1703678527164086e-01 0.0000000000000000e+00  -4.9597054410346633e-02 2.8478466777502354e-01 0.0000000000000000e+00  -8.0028634074961018e-03 1.9341896181738480e-01 0.0000000000000000e+00  -8.4196425514731013e-03 4.9005766296653031e-01 0.0000000000000000e+00  2.1356587800005069e-02 1.4973345207625885e-01 0.0000000000000000e+00  7.4406417201507737e-03 2.0246349346344908e-01 0.0000000000000000e+00  3.1614038856101749e-02 3.9602127682399202e-01 0.0000000000000000e+00  3.8850323079190579e-03 5.5711501207734015e-01 0.0000000000000000e+00  3.1515366446036808e-02 2.3846577232279018e-01 0.0000000000000000e+00  1.0105293756720939e-02 3.3220238777174621e-01 0.0000000000000000e+00  -4.0804768336370346e-02 -4.5879228454560944e-01 0.0000000000000000e+00  2.4911513927621731e-01 -3.6843735919586945e-01 0.0000000000000000e+00  -1.9686824663763233e-01 2.3442185756993825e-01 0.0000000000000000e+00  7.2545447138740882e-03 -5.0407756564720585e-01 0.0000000