<?xml version="1.0"?>
<VTKFile type="UnstructuredGrid"  version="0.1"  >
<UnstructuredGrid>
<Piece  NumberOfPoints="1419" NumberOfCells="2698">
<Points>
<DataArray  type="Float64"  NumberOfComponents="3"  format="ascii">5.28924893453431e-07 -3.380150442487271e-06 0  5.587409378758417e-07 0.4099965917807088 0  2.500001085551521 -5.393660348997598e-06 0  2.500001085551552 0.4099946063396389 0  0.6000012585384281 0.189994365123376 0  0.6000013223383772 0.2099942338864012 0  0.25 0.2 0  0.1500005382750402 0.1999966406711969 0  0.2489897948556636 0.21 0  0.2489897948556636 0.19 0  0.6000013715383943 0.1999942732186101 0  5.58271632318302e-07 0.3807108787456428 0  5.569552414759276e-07 0.3514251678778965 0  5.548280004706757e-07 0.3221394587342628 0  5.520284066614895e-07 0.2928537503355942 0  5.487679052001222e-07 0.2635680418873328 0  5.452164112312054e-07 0.2342823328469047 0  5.415996086069881e-07 0.2049966224147657 0  5.381650084315188e-07 0.175710910611985 0  5.351684856593681e-07 0.1464251972029547 0  5.327211842605942e-07 0.1171394824085372 0  5.309675249164162e-07 0.08785376659739605 0  5.297764004686031e-07 0.05856805045034561 0  5.291245147288779e-07 0.02928233466820974 0  0.03015496632291359 -3.380758342701723e-06 0  0.061400547954887 -3.383010654818012e-06 0  0.09377676795485861 -3.388339462142855e-06 0  0.1273245221357016 -3.39930091454218e-06 0  0.16208621251441 -3.420546799588325e-06 0  0.198105772756425 -3.46355770808375e-06 0  0.2354287226032708 -3.545893429307518e-06 0  0.2741022143470635 -3.679950122411393e-06 0  0.3141751381234291 -3.869096851425117e-06 0  0.3556981221538053 -4.109780735622993e-06 0  0.3987236399386092 -4.375126415166147e-06 0  0.4433060590461149 -4.636577320373594e-06 0  0.489501704942775 -4.873240514193145e-06 0  0.5373689653191239 -5.065373534240436e-06 0  0.5869683043126191 -5.203664167093678e-06 0  0.638362387488086 -5.295106496109738e-06 0  0.6916161645707585 -5.345579183464172e-06 0  0.7467969271798126 -5.37101195650615e-06 0  0.80397442295624 -5.383518305916856e-06 0  0.8632208949939285 -5.389266614993947e-06 0  0.924611215947719 -5.391791654503859e-06 0  0.9882229653982446 -5.392797021738099e-06 0  1.054136530447247 -5.393282880389806e-06 0  1.122435185718683 -5.393473280331371e-06 0  1.193205262486625 -5.393569172993447e-06 0  1.26653617531878 -5.3936151700012e-06 0  1.34252060153562 -5.393636497306577e-06 0  1.421254534021503 -5.393647772437269e-06 0  1.502837474640026 -5.393653906231686e-06 0  1.587372525301176 -5.3936570591043e-06 0  1.674966504324211 -5.393658680070831e-06 0  1.765730087374766 -5.393659532861614e-06 0  1.859777994430473 -5.393659949067174e-06 0  1.957229063038066 -5.393660166599538e-06 0  2.058206415421227 -5.39366026542002e-06 0  2.162837676741378 -5.393660315818178e-06 0  2.27125504284235 -5.393660337165216e-06 0  2.383595532354937 -5.393660346299505e-06 0  2.500001085551523 0.1024946063394105 0  2.500001085551538 0.2049946063391193 0  2.50000108555155 0.3074946063393589 0  2.383595532355216 0.4099946063396363 0  2.2712550428429 0.4099946063396269 0  2.162837676742248 0.4099946063396045 0  2.058206415422561 0.4099946063395567 0  1.957229063040128 0.4099946063394591 0  1.85977799443395 0.4099946063392326 0  1.765730087380718 0.4099946063388235 0  1.674966504335141 0.409994606337961 0  1.587372525321172 0.4099946063364163 0  1.502837474677087 0.4099946063335648 0  1.421254534090783 0.4099946063283261 0  1.342520601659643 0.4099946063202485 0  1.266536175536856 0.4099946063082918 0  1.193205262873069 0.40999460629498 0  1.122435186388921 0.4099946062916028 0  1.05413653155697 0.4099946063287307 0  0.9882229672537818 0.4099946065539606 0  0.9246112189169149 0.4099946072157357 0  0.8632208998208857 0.4099946090271525 0  0.8039744306055594 0.4099946137055613 0  0.7467969389844229 0.4099946248052294 0  0.6916161819409239 0.4099946489983506 0  0.6383624119088127 0.4099946994479183 0  0.586968338670423 0.409994788150947 0  0.5373690093474519 0.4099949245341876 0  0.4895017574908373 0.4099951138004421 0  0.4433061195721406 0.409995342568162 0  0.3987237069602992 0.4099955934484657 0  0.3556981933669587 0.4099958456469511 0  0.3141752110040884 0.4099960749546891 0  0.2741022839994131 0.4099962614767981 0  0.2354287869891296 0.4099963938025586 0  0.1981058297949432 0.4099964804007542 0  0.162086261605474 0.4099965314186543 0  0.1273245641716739 0.4099965602050291 0  0.09377680443823715 0.4099965770235313 0  0.06140058065708292 0.4099965859257717 0  0.03015499677654741 0.4099965906017677 0  0.2497468076502589 0.2050254481002335 0  0.2497468076502614 0.1949745518997913 0  0.2469967546215751 0.1829301357954334 0  0.2439896918423767 0.1762294846449318 0  0.2400335872942236 0.170041832139294 0  0.2352138054237951 0.1645005539121694 0  0.2296343361677516 0.1597251289963101 0  0.2234155518007671 0.1558185587181927 0  0.2166916159738404 0.1528651058174463 0  0.209607589305764 0.1509284769418678 0  0.2023163011884305 0.1500504410286877 0  0.1949750507492799 0.1502499389372038 0  0.1877422158862114 0.1515226606553324 0  0.1807738347559816 0.1538411474280327 0  0.1742202407095485 0.1571553780709365 0  0.168222818155642 0.1613938519560295 0  0.162910953232046 0.1664651283040997 0  0.1583992417686393 0.1722598012284629 0  0.1547850176905705 0.1786528581037294 0  0.1521462526622394 0.1855063777405138 0  0.1505398744446131 0.1926725048722019 0  0.1505398796912656 0.2073207773360279 0  0.1521462632121179 0.2144869072176993 0  0.154785033418476 0.2213404316059624 0  0.1583992627537912 0.2277334958353742 0  0.1629109793729142 0.2335281791843685 0  0.1682228495250325 0.2385994705574903 0  0.1742202771768555 0.2428379646357234 0  0.1807738764474085 0.2461522232629428 0  0.1877422626367394 0.2484707483971842 0  0.1949751026366895 0.2497435228843565 0  0.2023163581663652 0.2499430903330228 0  0.2096076515471723 0.2490651510655844 0  0.2166916831273751 0.2471286487618142 0  0.2234156236961914 0.2441753714206905 0  0.2296344130217575 0.2402690372186749 0  0.2352138861925772 0.2354939420940731 0  0.2400336709489128 0.2299531187032361 0  0.2439897751676026 0.2237661682678214 0  0.2469968269096361 0.2170666878820657 0  0.2564584060509718 0.2099984780205788 0  0.2639268057003311 0.2099979652041475 0  0.2713952089470544 0.2099976306338155 0  0.2788635507872888 0.2099973594733743 0  0.2863318878574583 0.2099971299875092 0  0.2938002004309546 0.2099969382437171 0  0.3012685197450071 0.2099967714500431 0  0.3087368272771421 0.2099966076900777 0  0.3162051354381124 0.2099964566812281 0  0.32367343850122 0.2099963160343558 0  0.3311417469267935 0.2099961854886882 0  0.3386100471729114 0.2099960637544314 0  0.3460783558577751 0.2099959445122679 0  0.3535466555254588 0.2099958197947057 0  0.3610149546621441 0.2099957386128602 0  0.3684832591449536 0.2099956494229495 0  0.3759515500306378 0.2099955610473156 0  0.3834198515772255 0.2099954738506588 0  0.3908881396882262 0.2099953928356276 0  0.3983564411257599 0.2099953125561944 0  0.4058247284029543 0.2099952414091902 0  0.4132930339457211 0.209995152265631 0  0.4207613171380631 0.2099950667852591 0  0.4282296483682306 0.2099950137472144 0  0.435697997430902 0.2099948959435077 0  0.4431663407666681 0.2099948935050547 0  0.4506346906961037 0.2099948716471297 0  0.4581030135353665 0.2099948139276711 0  0.4655713632276844 0.2099947216261464 0  0.4730396927153593 0.2099946745230413 0  0.4805080391095299 0.2099946726855077 0  0.4879763571660893 0.2099946328818606 0  0.4954446951986668 0.2099945450017481 0  0.5029130120868065 0.209994498784524 0  0.5103813511701604 0.2099944990576532 0  0.5178496701107713 0.2099944424901596 0  0.5253180035317078 0.2099943921091331 0  0.5327863260748036 0.2099943832413838 0  0.5402546788083872 0.2099943506186669 0  0.5477230409711856 0.2099941655154448 0  0.5551913652573499 0.2099941010402689 0  0.562659782777115 0.2099941770589726 0  0.5701280955224951 0.2099941750627672 0  0.5775964251565152 0.2099942036854852 0  0.5850647268785307 0.2099941950917854 0  0.5925330541334637 0.2099941504138343 0  0.6000014185580378 0.2049942255613649 0  0.6000012997281415 0.1949943119054748 0  0.592532981966679 0.1899943664569744 0  0.5850646780721851 0.1899943302524441 0  0.5775963229873428 0.1899943003687187 0  0.5701280002031236 0.1899942801540794 0  0.5626596658513447 0.1899942464381751 0  0.5551912751145892 0.1899942767517643 0  0.5477229363949676 0.1899943063002027 0  0.5402545689969354 0.1899943522856893 0  0.5327862444751738 0.1899944086582221 0  0.5253179142625918 0.189994453717695 0  0.5178496011314324 0.1899944829100103 0  0.5103812706128764 0.189994509051068 0  0.5029129524293099 0.1899945405083799 0  0.4954446081400124 0.1899945810278505 0  0.487976292858636 0.1899946266923066 0  0.4805079688854295 0.1899946682596216 0  0.4730396489563429 0.1899947078139128 0  0.4655712988520184 0.1899947541064716 0  0.4581029810276001 0.1899948083658939 0  0.4506346584499647 0.1899948591143943 0  0.4431663399195225 0.1899949065941137 0  0.4356979867543386 0.1899949627775629 0  0.4282296645131702 0.1899950266491862 0  0.4207613344637262 0.1899950799014275 0  0.4132930164146119 0.1899951765409593 0  0.4058247122577692 0.1899952644435549 0  0.3983563953933992 0.1899953485457111 0  0.3908880903945897 0.1899954333141186 0  0.3834197732804889 0.1899955184659226 0  0.375951466967743 0.1899956054908611 0  0.3684831521036123 0.1899956951091258 0  0.3610148479497379 0.1899957833243845 0  0.3535465336314816 0.189995867484413 0  0.3460782199548901 0.1899959883388246 0  0.3386099135493658 0.189996107575936 0  0.3311416012443383 0.189996230087918 0  0.3236732975939954 0.1899963589743849 0  0.3162049912939951 0.1899964970571413 0  0.3087366883994646 0.1899966458226702 0  0.3012683853219699 0.1899968108191463 0  0.2938000757669509 0.1899969816398921 0  0.2863317534234875 0.1899971705663627 0  0.2788634331521646 0.1899973735850016 0  0.2713950597704072 0.1899976466662058 0  0.2639266753098075 0.1899980886346658 0  0.2564582977691081 0.1899985176617665 0 
[...]
<PointData  Vectors="f_30-0"> 
<DataArray  type="Float64"  Name="f_30-0"  NumberOfComponents="3" format="ascii">0.0000000000000000e+00 0.0000000000000000e+00 0.0000000000000000e+00  0.0000000000000000e+00 0.0000000000000000e+00 0.0000000000000000e+00  0.0000000000000000e+00 0.0000000000000000e+00 0.0000000000000000e+00  0.0000000000000000e+00 0.0000000000000000e+00 0.0000000000000000e+00  3.5993327513503570e-01 -4.5390818747322054e-01 0.0000000000000000e+00  -1.9894037943888703e+00 -9.4805929231469976e-01 0.0000000000000000e+00  0.0000000000000000e+00 0.0000000000000000e+00 0.0000000000000000e+00  0.0000000000000000e+00 0.0000000000000000e+00 0.0000000000000000e+00  0.0000000000000000e+00 0.0000000000000000e+00 0.0000000000000000e+00  0.0000000000000000e+00 0.0000000000000000e+00 0.0000000000000000e+00  1.1655307064242584e+00 -3.5435696654226345e-01 0.0000000000000000e+00  0.0000000000000000e+00 0.0000000000000000e+00 0.0000000000000000e+00  0.0000000000000000e+00 0.0000000000000000e+00 0.0000000000000000e+00  0.0000000000000000e+00 0.0000000000000000e+00 0.0000000000000000e+00  0.0000000000000000e+00 0.0000000000000000e+00 0.0000000000000000e+00  0.0000000000000000e+00 0.0000000000000000e+00 0.0000000000000000e+00  0.0000000000000000e+00 0.0000000000000000e+00 0.0000000000000000e+00  0.0000000000000000e+00 0.0000000000000000e+00 0.0000000000000000e+00  0.0000000000000000e+00 0.0000000000000000e+00 0.0000000000000000e+00  0.0000000000000000e+00 0.0000000000000000e+00 0.0000000000000000e+00  0.0000000000000000e+00 0.0000000000000000e+00 0.0000000000000000e+00  0.0000000000000000e+00 0.0000000000000000e+00 0.0000000000000000e+00  0.0000000000000000e+00 0.0000000000000000e+00 0.0000000000000000e+00  0.0000000000000000e+00 0.0000000000000000e+00 0.0000000000000000e+00  0.0000000000000000e+00 0.0000000000000000e+00 0.0000000000000000e+00  0.0000000000000000e+00 0.0000000000000000e+00 0.0000000000000000e+00  0.0000000000000000e+00 0.0000000000000000e+00 0.0000000000000000e+00  0.0000000000000000e+00 0.0000000000000000e+00 0.0000000000000000e+00  0.0000000000000000e+00 0.0000000000000000e+00 0.0000000000000000e+00  0.0000000000000000e+00 0.0000000000000000e+00 0.0000000000000000e+00  0.0000000000000000e+00 0.0000000000000000e+00 0.0000000000000000e+00  0.0000000000000000e+00 0.0000000000000000e+00 0.0000000000000000e+00  0.0000000000000000e+00 0.0000000000000000e+00 0.0000000000000000e+00  0.0000000000000000e+00 0.0000000000000000e+00 0.0000000000000000e+00  0.0000000000000000e+00 0.0000000000000000e+00 0.0000000000000000e+00  0.0000000000000000e+00 0.0000000000000000e+00 0.0000000000000000e+00  0.0000000000000000e+00 0.0000000000000000e+00 0.0000000000000000e+00  0.0000000000000000e+00 0.0000000000000000e+00 0.0000000000000000e+00  0.0000000000000000e+00 0.0000000000000000e+00 0.0000000000000000e+00  0.0000000000000000e+00 0.0000000000000000e+00 0.0000000000000000e+00  0.0000000000000000e+00 0.0000000000000000e+00 0.0000000000000000e+00  0.0000000000000000e+00 0.0000000000000000e+00 0.0000000000000000e+00  0.0000000000000000e+00 0.0000000000000000e+00 0.0000000000000000e+00  0.0000000000000000e+00 0.0000000000000000e+00 0.0000000000000000e+00  0.0000000000000000e+00 0.0000000000000000e+00 0.0000000000000000e+00  0.0000000000000000e+00 0.0000000000000000e+00 0.0000000000000000e+00  0.0000000000000000e+00 0.0000000000000000e+00 0.0000000000000000e+00  0.0000000000000000e+00 0.0000000000000000e+00 0.0000000000000000e+00  0.0000000000000000e+00 0.0000000000000000e+00 0.0000000000000000e+00  0.0000000000000000e+00 0.0000000000000000e+00 0.0000000000000000e+00  0.0000000000000000e+00 0.0000000000000000e+00 0.0000000000000000e+00  0.0000000000000000e+00 0.0000000000000000e+00 0.0000000000000000e+00  0.0000000000000000e+00 0.0000000000000000e+00 0.0000000000000000e+00  0.0000000000000000e+00 0.0000000000000000e+00 0.0000000000000000e+00  0.0000000000000000e+00 0.0000000000000000e+00 0.0000000000000000e+00  0.0000000000000000e+00 0.0000000000000000e+00 0.0000000000000000e+00  0.0000000000000000e+00 0.0000000000000000e+00 0.0000000000000000e+00  0.0000000000000000e+00 0.0000000000000000e+00 0.0000000000000000e+00  0.0000000000000000e+00 0.0000000000000000e+00 0.0000000000000000e+00  0.0000000000000000e+00 0.0000000000000000e+00 0.0000000000000000e+00  0.0000000000000000e+00 0.0000000000000000e+00 0.0000000000000000e+00  0.0000000000000000e+00 0.0000000000000000e+00 0.0000000000000000e+00  1.5711023305148948e-08 5.9562879497717284e-09 0.0000000000000000e+00  -3.0187461863309853e-10 8.6980109800972219e-09 0.0000000000000000e+00  -1.6772766184740227e-08 6.5958458230843035e-09 0.0000000000000000e+00  0.0000000000000000e+00 0.0000000000000000e+00 0.0000000000000000e+00  0.0000000000000000e+00 0.0000000000000000e+00 0.0000000000000000e+00  0.0000000000000000e+00 0.0000000000000000e+00 0.0000000000000000e+00  0.0000000000000000e+00 0.0000000000000000e+00 0.0000000000000000e+00  0.0000000000000000e+00 0.0000000000000000e+00 0.0000000000000000e+00  0.0000000000000000e+00 0.0000000000000000e+00 0.0000000000000000e+00  0.0000000000000000e+00 0.0000000000000000e+00 0.0000000000000000e+00  0.0000000000000000e+00 0.0000000000000000e+00 0.0000000000000000e+00  0.0000000000000000e+00 0.0000000000000000e+00 0.0000000000000000e+00  0.0000000000000000e+00 0.0000000000000000e+00 0.0000000000000000e+00  0.0000000000000000e+00 0.0000000000000000e+00 0.0000000000000000e+00  0.0000000000000000e+00 0.0000000000000000e+00 0.0000000000000000e+00  0.0000000000000000e+00 0.0000000000000000e+00 0.0000000000000000e+00  0.0000000000000000e+00 0.0000000000000000e+00 0.0000000000000000e+00  0.0000000000000000e+00 0.0000000000000000e+00 0.0000000000000000e+00  0.0000000000000000e+00 0.0000000000000000e+00 0.0000000000000000e+00  0.0000000000000000e+00 0.0000000000000000e+00 0.0000000000000000e+00  0.0000000000000000e+00 0.0000000000000000e+00 0.0000000000000000e+00  0.0000000000000000e+00 0.0000000000000000e+00 0.0000000000000000e+00  0.0000000000000000e+00 0.0000000000000000e+00 0.0000000000000000e+00  0.0000000000000000e+00 0.0000000000000000e+00 0.0000000000000000e+00  0.0000000000000000e+00 0.0000000000000000e+00 0.0000000000000000e+00  0.0000000000000000e+00 0.0000000000000000e+00 0.0000000000000000e+00  0.0000000000000000e+00 0.0000000000000000e+00 0.0000000000000000e+00  0.0000000000000000e+00 0.0000000000000000e+00 0.0000000000000000e+00  0.0000000000000000e+00 0.0000000000000000e+00 0.0000000000000000e+00  0.0000000000000000e+00 0.0000000000000000e+00 0.0000000000000000e+00  0.0000000000000000e+00 0.0000000000000000e+00 0.0000000000000000e+00  0.0000000000000000e+00 0.0000000000000000e+00 0.0000000000000000e+00  0.0000000000000000e+00 0.0000000000000000e+00 0.0000000000000000e+00  0.0000000000000000e+00 0.0000000000000000e+00 0.0000000000000000e+00  0.0000000000000000e+00 0.0000000000000000e+00 0.0000000000000000e+00  0.0000000000000000e+00 0.0000000000000000e+00 0.0000000000000000e+00  0.0000000000000000e+00 0.0000000000000000e+00 0.0000000000000000e+00  0.0000000000000000e+00 0.0000000000000000e+00 0.0000000000000000e+00  0.0000000000000000e+00 0.0000000000000000e+00 0.0000000000000000e+00  0.0000000000000000e+00 0.0000000000000000e+00 0.0000000000000000e+00  0.0000000000000000e+00 0.0000000000000000e+00 0.0000000000000000e+00  0.0000000000000000e+00 0.0000000000000000e+00 0.0000000000000000e+00  0.0000000000000000e+00 0.0000000000000000e+00 0.0000000000000000e+00  0.0000000000000000e+00 0.0000000000000000e+00 0.0000000000000000e+00  0.0000000000000000e+00 0.0000000000000000e+00 0.0000000000000000e+00  0.0000000000000000e+00 0.0000000000000000e+00 0.0000000000000000e+00  0.0000000000000000e+00 0.0000000000000000e+00 0.0000000000000000e+00  0.0000000000000000e+00 0.0000000000000000e+00 0.0000000000000000e+00  0.0000000000000000e+00 0.0000000000000000e+00 0.0000000000000000e+00  0.0000000000000000e+00 0.0000000000000000e+00 0.0000000000000000e+00  0.0000000000000000e+00 0.0000000000000000e+00 0.0000000000000000e+00  0.0000000000000000e+00 0.0000000000000000e+00 0.0000000000000000e+00  0.0000000000000000e+00 0.0000000000000000e+00 0.0000000000000000e+00  0.0000000000000000e+00 0.0000000000000000e+00 0.0000000000000000e+00  0.0000000000000000e+00 0.0000000000000000e+00 0.0000000000000000e+00  0.0000000000000000e+00 0.0000000000000000e+00 0.0000000000000000e+00  0.0000000000000000e+00 0.0000000000000000e+00 0.0000000000000000e+00  0.0000000000000000e+00 0.0000000000000000e+00 0.0000000000000000e+00  0.0000000000000000e+00 0.0000000000000000e+00 0.0000000000000000e+00  0.0000000000000000e+00 0.0000000000000000e+00 0.0000000000000000e+00  0.0000000000000000e+00 0.0000000000000000e+00 0.0000000000000000e+00  0.0000000000000000e+00 0.0000000000000000e+00 0.0000000000000000e+00  0.0000000000000000e+00 0.0000000000000000e+00 0.0000000000000000e+00  0.0000000000000000e+00 0.0000000000000000e+00 0.0000000000000000e+00  0.0000000000000000e+00 0.0000000000000000e+00 0.0000000000000000e+00  0.0000000000000000e+00 0.0000000000000000e+00 0.0000000000000000e+00  0.0000000000000000e+00 0.0000000000000000e+00 0.0000000000000000e+00  0.0000000000000000e+00 0.0000000000000000e+00 0.0000000000000000e+00  0.0000000000000000e+00 0.0000000000000000e+00 0.0000000000000000e+00  0.0000000000000000e+00 0.0000000000000000e+00 0.0000000000000000e+00  0.0000000000000000e+00 0.0000000000000000e+00 0.0000000000000000e+00  0.0000000000000000e+00 0.0000000000000000e+00 0.0000000000000000e+00  0.0000000000000000e+00 0.0000000000000000e+00 0.0000000000000000e+00  0.0000000000000000e+00 0.0000000000000000e+00 0.0000000000000000e+00  0.0000000000000000e+00 0.0000000000000000e+00 0.0000000000000000e+00  0.0000000000000000e+00 0.0000000000000000e+00 0.0000000000000000e+00  0.0000000000000000e+00 0.0000000000000000e+00 0.0000000000000000e+00  0.0000000000000000e+00 0.0000000000000000e+00 0.0000000000000000e+00  0.0000000000000000e+00 0.0000000000000000e+00 0.0000000000000000e+00  0.0000000000000000e+00 0.0000000000000000e+00 0.0000000000000000e+00  0.0000000000000000e+00 0.0000000000000000e+00 0.0000000000000000e+00  6.6460922518884052e-03 1.2777983757662299e+00 0.0000000000000000e+00  -1.8445247012922272e-02 1.1875342357213567e+00 0.0000000000000000e+00  5.0172731886467481e-01 8.9929463359655948e-01 0.0000000000000000e+00  2.2179907174599217e-01 5.4516670904947528e-01 0.0000000000000000e+00  2.9067547624110174e-01 3.7277395718868861e-01 0.0000000000000000e+00  1.2891790870528896e-01 2.5246753151564416e-01 0.0000000000000000e+00  1.5205194381339984e-01 1.5633134513696323e-01 0.0000000000000000e+00  9.7644538469948194e-02 3.5709776634032082e-02 0.0000000000000000e+00  8.9671681089735333e-02 -8.3529969936040074e-02 0.0000000000000000e+00  3.0655019175106140e-02 -1.5350307158681153e-01 0.0000000000000000e+00  5.8068033134685580e-02 -2.5665601954947342e-01 0.0000000000000000e+00  -1.1644862441218195e-02 -2.6976061979568861e-01 0.0000000000000000e+00  6.4306063271418162e-02 -3.7174123555924210e-01 0.0000000000000000e+00  1.4228600996152368e-02 -4.2839501686201936e-01 0.0000000000000000e+00  -1.7524736588185274e-02 -4.0189820899862533e-01 0.0000000000000000e+00  1.1735082408260978e-02 -4.0337713373510659e-01 0.0000000000000000e+00  -6.4653142221731283e-02 -4.1856564309457556e-01 0.0000000000000000e+00  -3.7452009139751150e-02 -4.6830701460503626e-01 0.0000000000000000e+00  -1.3105319192362189e-01 -4.4723729916173788e-01 0.0000000000000000e+00  -1.1989622831683434e-01 -5.5882112123853456e-01 0.0000000000000000e+00  -2.6356093818321652e-01 -4.0415483097968763e-01 0.0000000000000000e+00  -1.3924640346006842e-01 -6.7963563339293931e-01 0.0000000000000000e+00  -4.4399397349241593e-01 -4.9266031433246715e-01 0.0000000000000000e+00  -2.3212054828694664e-01 -4.4919972466694164e-01 0.0000000000000000e+00  -2.9827275085545452e-01 -1.8104916894698355e+00 0.0000000000000000e+00  -2.1804734713000895e-01 -6.5011333087996104e-01 0.0000000000000000e+00  6.3345135757507290e-02 -2.6259487389338609e-01 0.0000000000000000e+00  -1.8410407212727736e-01 -3.7985747661900515e-01 0.0000000000000000e+00  1.7250044431812359e-01 -1.0745757809164658e+00 0.0000000000000000e+00  -2.0428783427879482e-01 -1.0852521229591547e+00 0.0000000000000000e+00  1.6037759344648012e-01 -3.2249948201718426e-01 0.0000000000000000e+00  -6.1256922408163425e-02 -2.5690571704667525e-01 0.0000000000000000e+00  2.5313665738069369e-01 -9.9375857577298266e-01 0.0000000000000000e+00  -2.1070361608486948e-01 -1.0498958424578280e+00 0.0000000000000000e+00  1.3621684156843314e-01 -3.0983784485559934e-01 0.0000000000000000e+00  7.5160878401187139e-02 -7.3262055488938849e-01 0.0000000000000000e+00  4.7692681598519236e-04 -8.4779557455586774e-01 0.0000000000000000e+00  -2.9789559181210262e-01 -1.5028918144015946e-01 0.0000000000000000e+00  -2.0321099771783324e-01 1.9376555331545550e-01 0.0000000000000000e+00  1.6392537233110676e+00 -2.4767424186137212e+00 0.0000000000000000e+00  -1.7288102949258861e+00 -3.0149417038360204e+00 0.0000000000000000e+00  4.5332436957684952e-01 -7.3680740426461633e-01 0.0000000000000000e+00  4.2863092397303443e-01 -1.3503160009980906e+00 0.0000000000000000e+00  5.3822233615498116e-01 -8.8284639073337801e-01 0.0000000000000000e+00  3.3849881137344245e-01 -1.4719470435951820e+00 0.0000000000000000e+00  2.7040616749601987e+00 -2.8517808864071483e+00 0.0000000000000000e+00  2.4978938271633933e+00 -1.4318553550601434e+00 0.0000000000000000e+00  8.0869263818004744e-01 -6.7576103625959227e-01 0.0000000000000000e+00  8.1243994699941580e-01 -9.5951187894847856e-01 0.0000000000000000e+00  7.6750106587915334e-01 -9.6935681238454552e-01 0.0000000000000000e+00  1.3372647903653265e-01 -9.5697419206364931e-01 0.0000000000000000e+00  4.2126775731847799e-01 -1.1033435949968597e+00 0.0000000000000000e+00  3.0804082928509791e-01 -9.3823798508823275e-01 0.0000000000000000e+00  -1.6884905913048456e-01 -1.2604324437753867e+00 0.0000000000000000e+00  -4.6000236016276737e-02 -1.0392448261110476e+00 0.0000000000000000e+00  -4.0724564542002345e-01 -7.2683997645749754e-01 0.0000000000000000e+00  -2.6379854996567469e-02 -5.1512012422479092e-01 0.0000000000000000e+00  -7.9896227141301998e-02 -5.2302053541717097e-01 0.0000000000000000e+00  1.1621654713747551e-01 -5.8506998721389047e-01 0.0000000000000000e+00  -1.3082934586062273e-02 -6.2698056370607080e-01 0.0000000000000000e+00  1.2294681769588003e-01 -6.9413622485338788e-01 0.0000000000000000e+00  -1.7527691258553907e-01 -6.7322670951165597e-01 0.0000000000000000e+00  1.6658829263332387e-02 -5.7457123375666530e-01 0.0000000000000000e+00  -7.5013331712760149e-03 -5.8911198725159653e-01 0.0000000000000000e+00  1.5004843362891521e-01 -7.0099086089255813e-01 0.0000000000000000e+00  -2.0687428794622220e-01 -7.0256366309847840e-01 0.0000000000000000e+00  -4.7457731465685576e-02 -5.8386085158563594e-01 0.0000000000000000e+00  -5.6411252730650778e-02 -5.6845265390578281e-01 0.0000000000000000e+00  1.5815184985458938e-01 -7.0078649406146376e-01 0.0000000000000000e+00  -2.2290481229177189e-01 -7.5757470236270552e-01 0.0000000000000000e+00  -1.4625311419968867e-01 -6.7569906085065967e-01 0.0000000000000000e+00  -1.3814226240879418e-01 -6.1110957960022627e-01 0.0000000000000000e+00  -2.2266166274614463e-01 -6.1785888690595792e-01 0.0000000000000000e+00  -9.9271308837664607e-02 -5.2989310591821359e-01 0.0000000000000000e+00  -1.7597252082486087e-01 -5.1535378115122721e-01 0.0000000000000000e+00  -5.6476174815664151e-02 -4.9243443479424398e-01 0.0000000000000000e+00  -1.4972092861903391e-01 -4.7862381294989059e-01 0.0000000000000000e+00  -6.0120850686760131e-02 -4.5180254842930689e-01 0.0000000000000000e+00  -1.3128064540633508e-01 -4.2373656044298424e-01 0.0000000000000000e+00  -4.2835661144349495e-02 -4.1068640322559058e-01 0.0000000000000000e+00  -6.3327020873222686e-02 -3.9095254441511024e-01 0.0000000000000000e+00  -1.4520326582215762e-01 -3.8400769734086088e-01 0.0000000000000000e+00  -6.0636102837673990e-02 -3.0523751167900248e-01 0.0000000000000000e+00  -1.3414811905337237e-01 -2.6043849303954653e-01 0.0000000000000000e+00  -6.1515691247891621e-02 -1.8158537965779206e-01 0.0000000000000000e+00  -7.3371481030044303e-02 -1.2270267767480922e-01 0.0000000000000000e+00  -2.4092020794433108e-02 -1.1413759119986797e-02 0.0000000000000000e+00  -2.8402060398411734e-02 1.0524059031258841e-01 0.0000000000000000e+00  7.9027434881015046e-02 2.8852565382117173e-01 0.0000000000000000e+00  9.9392854066916322e-02 4.2835806734267401e-01 0.0000000000000000e+00  3.6363226292983930e-01 1.8209953777133675e-01 0.0000000000000000e+00  2.7566348375180946e-02 6.5467318355868964e-01 0.0000000000000000e+00  -9.0594924643463193e-01 2.7152023769140654e+00 0.0000000000000000e+00  3.9041042984497437e-01 1.3193972175356017e+00 0.0000000000000000e+00  -1.4858272570399986e-01 -1.0976882601767683e+00 0.0000000000000000e+00  -2.0542643885120071e-01 1.1328557452551271e+00 0.0000000000000000e+00  3.0291877456739735e-02 7.5745105346633834e-01 0.0000000000000000e+00  5.7785366528066984e-01 1.6298013515905547e+00 0.0000000000000000e+00  -1.9775503715139081e-01 -5.5364166865595277e-01 0.0000000000000000e+00  2.3170886062728606e-03 3.2653887062729559e-01 0.0000000000000000e+00  9.3710598238530576e-02 -3.1891633865500485e-01 0.0000000000000000e+00  -3.4832756696306276e-02 5.7566328261302480e-01 0.0000000000000000e+00  5.0787556022405273e-03 3.8926637862429940e-02 0.0000000000000000e+00  3.3856095241624131e-03 1.6652488752095554e-01 0.0000000000000000e+00  -1.7527861636376171e-01 5.3065150657128513e-01 0.0000000000000000e+00  -1.4055546905243998e-04 3.3535563121876422e-01 0.0000000000000000e+00  -2.5939493741453995e-01 5.3759981676325974e-01 0.0000000000000000e+00  -8.1618131786437254e-04 2.4172636371209871e-01 0.0000000000000000e+00  -1.6871187222488402e-02 3.6321291221503926e-01 0.0000000000000000e+00  2.4652543803155855e-01 5.5468843646245292e-01 0.0000000000000000e+00  2.5175480477869222e-01 5.1508509270389946e-01 0.0000000000000000e+00  -5.5966318919032351e-02 4.0241186305859433e-01 0.0000000000000000e+00  -2.5394853057096040e-01 4.6900539073085246e-01 0.0000000000000000e+00  -2.8992400168114042e-03 4.3034702240829881e-01 0.0000000000000000e+00  9.5094430623204593e-02 7.3486237776831376e-01 0.0000000000000000e+00  1.5983169616545109e-02 3.4311063500897737e-01 0.0000000000000000e+00  4.0240222266934916e-03 2.5560870546307130e-01 0.0000000000000000e+00  -5.2607179103094193e-01 3.4945686290699263e-01 0.0000000000000000e+00  -2.2656710090980348e-02 -7.2015181185232285e-02 0.0000000000000000e+00  6.3863984101951198e-03 5.0362430575825634e-01 0.0000000000000000e+00  -4.7518616457376600e-01 -8.7659394373042410e-01 0.0000000000000000e+00  -3.2340335986755391e-02 1.7201593524506795e-01 0.0000000000000000e+00  2.3808829963684916e-03 5.3522056903364124e-01 0.0000000000000000e+00  -2.9266883832970485e-02 -2.4563161405905662e-01 0.0000000000000000e+00  3.2707547589364942e-02 8.9598150669749660e-02 0.0000000000000000e+00  -1.8719682987429015e-02 2.5839413096196134e-01 0.0000000000000000e+00  -4.8832011050800990e-02 3.2496339173714933e-01 0.0000000000000000e+00  1.3797156174178055e-02 2.5853237103044419e-01 0.0000000000000000e+00  1.2660896552636346e-02 5.0083828774048622e-01 0.0000000000000000e+00  3.4761945307130553e-02 1.5487565707765719e-01 0.0000000000000000e+00  3.8241627297603643e-02 2.8573587502945236e-01 0.0000000000000000e+00  1.7372596271449652e-02 2.6670056607581882e-01 0.0000000000000000e+00  2.6957353476036845e-02 4.9480080666823023e-01 0.0000000000000000e+00  8.3649380896658965e-02 3.1535956849328983e-01 0.0000000000000000e+00  -1.5914014779556025e-02 5.1446943316465821e-01 0.0000000000000000e+00  -4.0463235408380427e-02 -8.0596804528179722e-01 0.0000000000000000e+00  8.1468514474512110e-01 -4.5305427452920971e-01 0.0000000000000000e+00  -5.6207047308152380e-01 1.5079708848766302e+00 0.0000000000000000e+00  -1.8241433595492313e-02 -8.1785946275736721e-01 0.000