<?xml version="1.0"?>
<VTKFile type="UnstructuredGrid"  version="0.1"  >
<UnstructuredGrid>
<Piece  NumberOfPoints="1419" NumberOfCells="2698">
<Points>
<DataArray  type="Float64"  NumberOfComponents="3"  format="ascii">8.002120595268174e-08 -2.251709522061293e-06 0  1.060995503177786e-07 0.4099977384261125 0  2.500000216926163 -3.387305663424436e-06 0  2.500000216926193 0.4099966126943655 0  0.6000002421443813 0.1899965056932021 0  0.6000002710520844 0.209996504071669 0  0.25 0.2 0  0.1500000916598966 0.1999977650352625 0  0.2489897948556636 0.21 0  0.2489897948556636 0.19 0  0.6000002638164744 0.199996492745855 0  1.057834572499105e-07 0.380712024834661 0  1.048863226287621e-07 0.3514263124366663 0  1.033921094401952e-07 0.3221406009489447 0  1.013230798889237e-07 0.2928548897618578 0  9.879483251356442e-08 0.2635691784084434 0  9.591139723545991e-08 0.2342834665766408 0  9.280159013559159e-08 0.2049977537978659 0  8.97111383802846e-08 0.175712040156224 0  8.686394554606754e-08 0.1464263255671613 0  8.439497854727661e-08 0.1171406102102937 0  8.248940400087262e-08 0.08785489437550523 0  8.109805772719103e-08 0.05856917848194124 0  8.028038300172497e-08 0.0292834629945104 0  0.03015451735094113 -2.252180294170012e-06 0  0.06140009872774684 -2.253884369182809e-06 0  0.09377631811449101 -2.257742215685315e-06 0  0.1273240710160494 -2.265361168238409e-06 0  0.1620857588850251 -2.279632429630551e-06 0  0.198105313980435 -2.307675397120181e-06 0  0.2354282538284241 -2.360229817926607e-06 0  0.2741017288833959 -2.444495404715013e-06 0  0.3141746281800417 -2.561883466326992e-06 0  0.3556975781508432 -2.708600607808196e-06 0  0.3987230536464936 -2.867228264214867e-06 0  0.4433054230416618 -3.018842672676407e-06 0  0.4895010144854166 -3.150362395572031e-06 0  0.5373682208719588 -3.250478705526461e-06 0  0.5869675130303496 -3.316387525196361e-06 0  0.6383615609391339 -3.355918934789253e-06 0  0.6916153166938115 -3.375129792681978e-06 0  0.7467960681912266 -3.383469342319597e-06 0  0.8039735584854661 -3.386806852666027e-06 0  0.8632200280544535 -3.387874243423269e-06 0  0.9246103479682489 -3.38802290855635e-06 0  0.9882220970353569 -3.387876456263414e-06 0  1.054135661914266 -3.387704524658379e-06 0  1.122434317130194 -3.387562873085976e-06 0  1.193204393874838 -3.387460436894146e-06 0  1.266535306698235 -3.387395149490655e-06 0  1.34251973291223 -3.387356742574108e-06 0  1.421253665396973 -3.387333994250616e-06 0  1.502836606015023 -3.387320644772215e-06 0  1.587371656675977 -3.387313453919266e-06 0  1.674965635698929 -3.38730964732258e-06 0  1.765729218749444 -3.387307621115755e-06 0  1.859777125805133 -3.38730662493605e-06 0  1.957228194412716 -3.387306102558182e-06 0  2.058205546795873 -3.387305864740072e-06 0  2.162836808116021 -3.387305743368085e-06 0  2.271254174216992 -3.387305691937048e-06 0  2.383594663729578 -3.387305669926262e-06 0  2.500000216926165 0.1024966126941019 0  2.500000216926178 0.2049966126938252 0  2.50000021692619 0.3074966126940797 0  2.383594663729859 0.4099966126943719 0  2.271254174217542 0.4099966126943947 0  2.162836808116889 0.4099966126944484 0  2.058205546797199 0.4099966126945642 0  1.957228194414762 0.4099966126947995 0  1.859777125808574 0.4099966126953474 0  1.765729218755326 0.4099966126963406 0  1.674965635709718 0.4099966126984508 0  1.587371656695696 0.4099966127022683 0  1.502836606051551 0.4099966127095407 0  1.421253665465239 0.4099966127235984 0  1.342519733034415 0.4099966127474816 0  1.266535306913055 0.409996612789246 0  1.193204394255653 0.4099966128678795 0  1.122434317791182 0.4099966130088679 0  1.054135663009285 0.4099966132445528 0  0.9882220988658303 0.4099966137110145 0  0.924610350920925 0.4099966145672355 0  0.863220032788137 0.4099966162063073 0  0.8039735658952488 0.4099966194859886 0  0.7467960795245234 0.4099966260743514 0  0.691615333364326 0.409996638953897 0  0.6383615844462855 0.4099966642012079 0  0.5869675448596573 0.409996708070726 0  0.5373682612917505 0.4099967768302764 0  0.4895010631479509 0.4099968763504011 0  0.44330547924623 0.4099970019401815 0  0.3987231156745047 0.4099971445525262 0  0.3556976433354717 0.4099972917385991 0  0.3141746935276428 0.4099974281225626 0  0.2741017908380599 0.4099975403584601 0  0.2354283103049929 0.4099976203965723 0  0.1981053636653606 0.4099976727173037 0  0.1620858016466722 0.40999770328972 0  0.1273241076926358 0.4099977202866105 0  0.09377634999799467 0.4099977300610179 0  0.06140012730060455 0.4099977351343279 0  0.03015454399089552 0.4099977377685011 0  0.2497468076502589 0.2050254481002335 0  0.2497468076502614 0.1949745518997913 0  0.2469965346148051 0.1829306271936319 0  0.2439893939947003 0.1762301693304269 0  0.2400332444732589 0.1700426379844894 0  0.2352134345142232 0.1645014403048324 0  0.2296339453127575 0.1597260745991912 0  0.223415146606604 0.1558195479524377 0  0.2166912002947224 0.1528661275063492 0  0.2096071659954811 0.1509295225777929 0  0.2023158719300175 0.1500515055357159 0  0.194974617175682 0.1502510173165445 0  0.1877417789917376 0.1515237498637226 0  0.180773395414881 0.1538422447625932 0  0.1742197994681286 0.1571564818559702 0  0.1682223754958085 0.1613949606912169 0  0.1629105094453188 0.1664662410992108 0  0.1583987971199698 0.1722609172528153 0  0.1547845723494021 0.1786539768414873 0  0.1521458067856551 0.1855074986941634 0  0.1505394281399569 0.19267362772031 0  0.1505394328682732 0.207321902897368 0  0.152145816288624 0.2144880336365704 0  0.1547845865248921 0.2213415584584037 0  0.158398816042561 0.2277346226432254 0  0.1629105330392299 0.233529305317187 0  0.1682224038499101 0.2386005951287686 0  0.1742198324817074 0.2428390866068418 0  0.1807734331739716 0.2461533412293155 0  0.1877418214640068 0.2484718602024737 0  0.1949746643936139 0.2497446258861523 0  0.2023159238368964 0.2499441814083703 0  0.2096072226970179 0.2490662252972576 0  0.2166912616078537 0.2471297003795079 0  0.2234152124837541 0.2441763913345045 0  0.2296340155738947 0.2402700151810611 0  0.235213508537422 0.2354948610946978 0  0.2400333211000532 0.2299539575616068 0  0.2439894699230434 0.2237668860169466 0  0.2469966003753769 0.2170672073993024 0  0.2564581831722058 0.2099989529258028 0  0.2639265100082158 0.209998602283366 0  0.2713948370702473 0.2099983754959173 0  0.2788631421210107 0.2099981978727578 0  0.2863314502363811 0.2099980478489206 0  0.2937997512070001 0.209997917112245 0  0.3012680544161504 0.2099978002750573 0  0.3087363554320968 0.2099976999659672 0  0.3162046614828544 0.2099976064376436 0  0.3236729618207405 0.2099975202998706 0  0.3311412700462387 0.209997440751871 0  0.3386095699551561 0.2099973673334541 0  0.3460778780900515 0.2099972957578428 0  0.3535461790739349 0.2099972192485923 0  0.3610144793548967 0.2099971762779151 0  0.3684827849744352 0.2099971277614223 0  0.3759510809542798 0.2099970768193001 0  0.383419384882875 0.2099970287294645 0  0.3908876792916706 0.2099969815034849 0  0.3983559826220447 0.2099969358269053 0  0.4058242753839926 0.2099968907862587 0  0.413292577779034 0.2099968415366061 0  0.4207608692384444 0.2099967818178526 0  0.4282291676465522 0.209996756943608 0  0.4356974734518725 0.2099967203070189 0  0.4431657722287125 0.2099966855680408 0  0.4506340824391676 0.2099966461198073 0  0.458102384080699 0.2099966132507003 0  0.4655706996797063 0.2099965798459567 0  0.4730390037572965 0.209996549626571 0  0.4805073225652251 0.2099965242364093 0  0.4879756305848354 0.2099965040359592 0  0.4954439588487563 0.209996462954725 0  0.5029122708828525 0.2099964457819262 0  0.5103805983993566 0.2099964539005281 0  0.5178489060252434 0.2099964446012944 0  0.525317226229667 0.2099964347453138 0  0.5327855327158914 0.2099964235691637 0  0.5402538543933906 0.2099964187828152 0  0.5477221621286573 0.2099964180444391 0  0.5551904814783608 0.2099964192411373 0  0.5626587891688131 0.2099964064967765 0  0.5701270852356434 0.2099964372123511 0  0.5775953922063279 0.209996458272349 0  0.5850636882169541 0.2099964641685334 0  0.5925319868932831 0.2099964799627262 0  0.6000002728686873 0.2049964945070579 0  0.6000002497150604 0.194996499665144 0  0.5925319407088739 0.1899964865049836 0  0.5850636436854507 0.1899964626917739 0  0.5775953334907629 0.1899964411346523 0  0.570127032029294 0.1899964203177227 0  0.5626587231191512 0.1899963917310318 0  0.5551904102764749 0.1899963980691456 0  0.5477221080507105 0.189996393733691 0  0.5402537895886709 0.18999639058296 0  0.5327854866418944 0.1899963922663232 0  0.5253171661065906 0.1899963967359692 0  0.5178488613185089 0.1899964022276399 0  0.5103805417087032 0.189996407263693 0  0.502912235888637 0.1899964149494181 0  0.4954439072364875 0.1899964309655974 0  0.4879756011425524 0.1899964555041986 0  0.4805072802584394 0.1899964839630497 0  0.4730389753825527 0.1899965132841764 0  0.4655706549436722 0.1899965446564159 0  0.4581023528671039 0.1899965787027137 0  0.4506340369920186 0.1899966161760916 0  0.4431657359075524 0.1899966558939558 0  0.4356974214874176 0.1899966971306933 0  0.4282291194313882 0.1899967369132789 0  0.4207608088390952 0.1899967676901506 0  0.4132925013852339 0.1899968274226227 0  0.4058242016337232 0.1899968808213641 0  0.3983558935266027 0.1899969298279984 0  0.3908875925692026 0.1899969791141505 0  0.3834192840677334 0.1899970284716232 0  0.3759509822760397 0.1899970785773326 0  0.3684826742207811 0.1899971299071425 0  0.3610143734416461 0.1899971793460907 0  0.3535460651485295 0.1899972253032704 0  0.3460777557172822 0.1899973007525666 0  0.3386094532290868 0.1899973737700237 0  0.3311411442473009 0.1899974482022365 0  0.3236728435049958 0.1899975273763299 0  0.3162045376394104 0.1899976132306311 0  0.3087362378211387 0.189997705071888 0  0.3012679339037099 0.1899978044177315 0  0.2937996319736351 0.1899979211929388 0  0.286331326268833 0.1899980511250531 0  0.2788630230838802 0.18999819843563 0  0.2713947036534455 0.1899983815227417 0  0.2639263952320641 0.1899986201965915 0  0.2564580849883651 0.1899989598334746 
[...]
<PointData  Vectors="f_30-0"> 
<DataArray  type="Float64"  Name="f_30-0"  NumberOfComponents="3" format="ascii">0.0000000000000000e+00 0.0000000000000000e+00 0.0000000000000000e+00  0.0000000000000000e+00 0.0000000000000000e+00 0.0000000000000000e+00  0.0000000000000000e+00 0.0000000000000000e+00 0.0000000000000000e+00  0.0000000000000000e+00 0.0000000000000000e+00 0.0000000000000000e+00  4.5538520601231626e-02 -1.1063623147613867e-01 0.0000000000000000e+00  1.0667901416506242e-01 -1.0183612628229745e-01 0.0000000000000000e+00  0.0000000000000000e+00 0.0000000000000000e+00 0.0000000000000000e+00  0.0000000000000000e+00 0.0000000000000000e+00 0.0000000000000000e+00  0.0000000000000000e+00 0.0000000000000000e+00 0.0000000000000000e+00  0.0000000000000000e+00 0.0000000000000000e+00 0.0000000000000000e+00  1.7393182279878167e-01 -2.3313456839549548e-01 0.0000000000000000e+00  0.0000000000000000e+00 0.0000000000000000e+00 0.0000000000000000e+00  0.0000000000000000e+00 0.0000000000000000e+00 0.0000000000000000e+00  0.0000000000000000e+00 0.0000000000000000e+00 0.0000000000000000e+00  0.0000000000000000e+00 0.0000000000000000e+00 0.0000000000000000e+00  0.0000000000000000e+00 0.0000000000000000e+00 0.0000000000000000e+00  0.0000000000000000e+00 0.0000000000000000e+00 0.0000000000000000e+00  0.0000000000000000e+00 0.0000000000000000e+00 0.0000000000000000e+00  0.0000000000000000e+00 0.0000000000000000e+00 0.0000000000000000e+00  0.0000000000000000e+00 0.0000000000000000e+00 0.0000000000000000e+00  0.0000000000000000e+00 0.0000000000000000e+00 0.0000000000000000e+00  0.0000000000000000e+00 0.0000000000000000e+00 0.0000000000000000e+00  0.0000000000000000e+00 0.0000000000000000e+00 0.0000000000000000e+00  0.0000000000000000e+00 0.0000000000000000e+00 0.0000000000000000e+00  0.0000000000000000e+00 0.0000000000000000e+00 0.0000000000000000e+00  0.0000000000000000e+00 0.0000000000000000e+00 0.0000000000000000e+00  0.0000000000000000e+00 0.0000000000000000e+00 0.0000000000000000e+00  0.0000000000000000e+00 0.0000000000000000e+00 0.0000000000000000e+00  0.0000000000000000e+00 0.0000000000000000e+00 0.0000000000000000e+00  0.0000000000000000e+00 0.0000000000000000e+00 0.0000000000000000e+00  0.0000000000000000e+00 0.0000000000000000e+00 0.0000000000000000e+00  0.0000000000000000e+00 0.0000000000000000e+00 0.0000000000000000e+00  0.0000000000000000e+00 0.0000000000000000e+00 0.0000000000000000e+00  0.0000000000000000e+00 0.0000000000000000e+00 0.0000000000000000e+00  0.0000000000000000e+00 0.0000000000000000e+00 0.0000000000000000e+00  0.0000000000000000e+00 0.0000000000000000e+00 0.0000000000000000e+00  0.0000000000000000e+00 0.0000000000000000e+00 0.0000000000000000e+00  0.0000000000000000e+00 0.0000000000000000e+00 0.0000000000000000e+00  0.0000000000000000e+00 0.0000000000000000e+00 0.0000000000000000e+00  0.0000000000000000e+00 0.0000000000000000e+00 0.0000000000000000e+00  0.0000000000000000e+00 0.0000000000000000e+00 0.0000000000000000e+00  0.0000000000000000e+00 0.0000000000000000e+00 0.0000000000000000e+00  0.0000000000000000e+00 0.0000000000000000e+00 0.0000000000000000e+00  0.0000000000000000e+00 0.0000000000000000e+00 0.0000000000000000e+00  0.0000000000000000e+00 0.0000000000000000e+00 0.0000000000000000e+00  0.0000000000000000e+00 0.0000000000000000e+00 0.0000000000000000e+00  0.0000000000000000e+00 0.0000000000000000e+00 0.0000000000000000e+00  0.0000000000000000e+00 0.0000000000000000e+00 0.0000000000000000e+00  0.0000000000000000e+00 0.0000000000000000e+00 0.0000000000000000e+00  0.0000000000000000e+00 0.0000000000000000e+00 0.0000000000000000e+00  0.0000000000000000e+00 0.0000000000000000e+00 0.0000000000000000e+00  0.0000000000000000e+00 0.0000000000000000e+00 0.0000000000000000e+00  0.0000000000000000e+00 0.0000000000000000e+00 0.0000000000000000e+00  0.0000000000000000e+00 0.0000000000000000e+00 0.0000000000000000e+00  0.0000000000000000e+00 0.0000000000000000e+00 0.0000000000000000e+00  0.0000000000000000e+00 0.0000000000000000e+00 0.0000000000000000e+00  0.0000000000000000e+00 0.0000000000000000e+00 0.0000000000000000e+00  0.0000000000000000e+00 0.0000000000000000e+00 0.0000000000000000e+00  0.0000000000000000e+00 0.0000000000000000e+00 0.0000000000000000e+00  0.0000000000000000e+00 0.0000000000000000e+00 0.0000000000000000e+00  0.0000000000000000e+00 0.0000000000000000e+00 0.0000000000000000e+00  0.0000000000000000e+00 0.0000000000000000e+00 0.0000000000000000e+00  9.4650431659873883e-09 3.2696830441107677e-09 0.0000000000000000e+00  -2.0747260075395363e-10 4.6845358884695071e-09 0.0000000000000000e+00  -9.7295013993294427e-09 3.7387340075604217e-09 0.0000000000000000e+00  0.0000000000000000e+00 0.0000000000000000e+00 0.0000000000000000e+00  0.0000000000000000e+00 0.0000000000000000e+00 0.0000000000000000e+00  0.0000000000000000e+00 0.0000000000000000e+00 0.0000000000000000e+00  0.0000000000000000e+00 0.0000000000000000e+00 0.0000000000000000e+00  0.0000000000000000e+00 0.0000000000000000e+00 0.0000000000000000e+00  0.0000000000000000e+00 0.0000000000000000e+00 0.0000000000000000e+00  0.0000000000000000e+00 0.0000000000000000e+00 0.0000000000000000e+00  0.0000000000000000e+00 0.0000000000000000e+00 0.0000000000000000e+00  0.0000000000000000e+00 0.0000000000000000e+00 0.0000000000000000e+00  0.0000000000000000e+00 0.0000000000000000e+00 0.0000000000000000e+00  0.0000000000000000e+00 0.0000000000000000e+00 0.0000000000000000e+00  0.0000000000000000e+00 0.0000000000000000e+00 0.0000000000000000e+00  0.0000000000000000e+00 0.0000000000000000e+00 0.0000000000000000e+00  0.0000000000000000e+00 0.0000000000000000e+00 0.0000000000000000e+00  0.0000000000000000e+00 0.0000000000000000e+00 0.0000000000000000e+00  0.0000000000000000e+00 0.0000000000000000e+00 0.0000000000000000e+00  0.0000000000000000e+00 0.0000000000000000e+00 0.0000000000000000e+00  0.0000000000000000e+00 0.0000000000000000e+00 0.0000000000000000e+00  0.0000000000000000e+00 0.0000000000000000e+00 0.0000000000000000e+00  0.0000000000000000e+00 0.0000000000000000e+00 0.0000000000000000e+00  0.0000000000000000e+00 0.0000000000000000e+00 0.0000000000000000e+00  0.0000000000000000e+00 0.0000000000000000e+00 0.0000000000000000e+00  0.0000000000000000e+00 0.0000000000000000e+00 0.0000000000000000e+00  0.0000000000000000e+00 0.0000000000000000e+00 0.0000000000000000e+00  0.0000000000000000e+00 0.0000000000000000e+00 0.0000000000000000e+00  0.0000000000000000e+00 0.0000000000000000e+00 0.0000000000000000e+00  0.0000000000000000e+00 0.0000000000000000e+00 0.0000000000000000e+00  0.0000000000000000e+00 0.0000000000000000e+00 0.0000000000000000e+00  0.0000000000000000e+00 0.0000000000000000e+00 0.0000000000000000e+00  0.0000000000000000e+00 0.0000000000000000e+00 0.0000000000000000e+00  0.0000000000000000e+00 0.0000000000000000e+00 0.0000000000000000e+00  0.0000000000000000e+00 0.0000000000000000e+00 0.0000000000000000e+00  0.0000000000000000e+00 0.0000000000000000e+00 0.0000000000000000e+00  0.0000000000000000e+00 0.0000000000000000e+00 0.0000000000000000e+00  0.0000000000000000e+00 0.0000000000000000e+00 0.0000000000000000e+00  0.0000000000000000e+00 0.0000000000000000e+00 0.0000000000000000e+00  0.0000000000000000e+00 0.0000000000000000e+00 0.0000000000000000e+00  0.0000000000000000e+00 0.0000000000000000e+00 0.0000000000000000e+00  0.0000000000000000e+00 0.0000000000000000e+00 0.0000000000000000e+00  0.0000000000000000e+00 0.0000000000000000e+00 0.0000000000000000e+00  0.0000000000000000e+00 0.0000000000000000e+00 0.0000000000000000e+00  0.0000000000000000e+00 0.0000000000000000e+00 0.0000000000000000e+00  0.0000000000000000e+00 0.0000000000000000e+00 0.0000000000000000e+00  0.0000000000000000e+00 0.0000000000000000e+00 0.0000000000000000e+00  0.0000000000000000e+00 0.0000000000000000e+00 0.0000000000000000e+00  0.0000000000000000e+00 0.0000000000000000e+00 0.0000000000000000e+00  0.0000000000000000e+00 0.0000000000000000e+00 0.0000000000000000e+00  0.0000000000000000e+00 0.0000000000000000e+00 0.0000000000000000e+00  0.0000000000000000e+00 0.0000000000000000e+00 0.0000000000000000e+00  0.0000000000000000e+00 0.0000000000000000e+00 0.0000000000000000e+00  0.0000000000000000e+00 0.0000000000000000e+00 0.0000000000000000e+00  0.0000000000000000e+00 0.0000000000000000e+00 0.0000000000000000e+00  0.0000000000000000e+00 0.0000000000000000e+00 0.0000000000000000e+00  0.0000000000000000e+00 0.0000000000000000e+00 0.0000000000000000e+00  0.0000000000000000e+00 0.0000000000000000e+00 0.0000000000000000e+00  0.0000000000000000e+00 0.0000000000000000e+00 0.0000000000000000e+00  0.0000000000000000e+00 0.0000000000000000e+00 0.0000000000000000e+00  0.0000000000000000e+00 0.0000000000000000e+00 0.0000000000000000e+00  0.0000000000000000e+00 0.0000000000000000e+00 0.0000000000000000e+00  0.0000000000000000e+00 0.0000000000000000e+00 0.0000000000000000e+00  0.0000000000000000e+00 0.0000000000000000e+00 0.0000000000000000e+00  0.0000000000000000e+00 0.0000000000000000e+00 0.0000000000000000e+00  0.0000000000000000e+00 0.0000000000000000e+00 0.0000000000000000e+00  0.0000000000000000e+00 0.0000000000000000e+00 0.0000000000000000e+00  0.0000000000000000e+00 0.0000000000000000e+00 0.0000000000000000e+00  0.0000000000000000e+00 0.0000000000000000e+00 0.0000000000000000e+00  0.0000000000000000e+00 0.0000000000000000e+00 0.0000000000000000e+00  0.0000000000000000e+00 0.0000000000000000e+00 0.0000000000000000e+00  0.0000000000000000e+00 0.0000000000000000e+00 0.0000000000000000e+00  0.0000000000000000e+00 0.0000000000000000e+00 0.0000000000000000e+00  0.0000000000000000e+00 0.0000000000000000e+00 0.0000000000000000e+00  0.0000000000000000e+00 0.0000000000000000e+00 0.0000000000000000e+00  0.0000000000000000e+00 0.0000000000000000e+00 0.0000000000000000e+00  0.0000000000000000e+00 0.0000000000000000e+00 0.0000000000000000e+00  0.0000000000000000e+00 0.0000000000000000e+00 0.0000000000000000e+00  0.0000000000000000e+00 0.0000000000000000e+00 0.0000000000000000e+00  0.0000000000000000e+00 0.0000000000000000e+00 0.0000000000000000e+00  0.0000000000000000e+00 0.0000000000000000e+00 0.0000000000000000e+00  1.1714698400859540e-01 6.2163441577005640e-01 0.0000000000000000e+00  8.8760992004117509e-02 5.6176606694766740e-01 0.0000000000000000e+00  1.9737928387745204e-01 4.3559006622736596e-01 0.0000000000000000e+00  8.7938535841272036e-02 2.5476018619886165e-01 0.0000000000000000e+00  1.0900042793001492e-01 1.4358887017833702e-01 0.0000000000000000e+00  4.6894189158234345e-02 2.3128041068064299e-02 0.0000000000000000e+00  6.2754315848727676e-02 -5.4908248380858220e-02 0.0000000000000000e+00  3.2230114055710495e-05 -1.3412986577420732e-01 0.0000000000000000e+00  4.1919664550506455e-02 -1.8915287592316532e-01 0.0000000000000000e+00  -1.4849619842733579e-02 -2.1805193340761070e-01 0.0000000000000000e+00  4.2742629961698010e-02 -2.7310143781358087e-01 0.0000000000000000e+00  -1.6611091925800115e-02 -2.7551091512842951e-01 0.0000000000000000e+00  6.3109610110737707e-02 -3.2806339619910269e-01 0.0000000000000000e+00  1.5524856868925182e-02 -3.5188622721829438e-01 0.0000000000000000e+00  6.8441711938910157e-03 -3.2281344952603686e-01 0.0000000000000000e+00  3.8584387578020865e-02 -2.8328235879952157e-01 0.0000000000000000e+00  -4.0452479677721342e-03 -3.1348246987722750e-01 0.0000000000000000e+00  3.0098241992562391e-02 -2.9733973770231115e-01 0.0000000000000000e+00  -2.4167367255632153e-02 -3.0532090174585641e-01 0.0000000000000000e+00  2.4749141241083249e-02 -3.2853148225224355e-01 0.0000000000000000e+00  -6.0548487715099422e-02 -3.1595435441587322e-01 0.0000000000000000e+00  2.7665611415779345e-02 -3.5990761028923762e-01 0.0000000000000000e+00  -6.6361081957273291e-02 -3.9239800352575577e-01 0.0000000000000000e+00  -9.8068507373232874e-02 -3.7992097504060773e-01 0.0000000000000000e+00  -6.6789271835603972e-02 -4.9731783817981579e-01 0.0000000000000000e+00  -1.0807002329588479e-01 -4.4822196964922728e-01 0.0000000000000000e+00  -7.1456316088502947e-02 -5.7573845654126099e-01 0.0000000000000000e+00  -1.4182750806092695e-01 -5.5989305312215254e-01 0.0000000000000000e+00  -1.8673169409545269e-02 -6.1663728407593843e-01 0.0000000000000000e+00  -1.4332247524452432e-01 -6.4656321192110722e-01 0.0000000000000000e+00  -2.8116076021226066e-02 -6.5320761250310500e-01 0.0000000000000000e+00  -1.3958258538135118e-01 -4.9652999232583861e-01 0.0000000000000000e+00  8.2132533391411119e-02 -9.3343820832823399e-01 0.0000000000000000e+00  -8.0450080804671628e-02 -9.5187302170397914e-01 0.0000000000000000e+00  1.3053864723637837e-01 -4.9479819514766871e-01 0.0000000000000000e+00  1.3819847199976188e-02 -5.3789159886323867e-01 0.0000000000000000e+00  1.0846022558973716e-01 -5.3563391859642184e-01 0.0000000000000000e+00  -1.5989587155003471e-02 -6.4275807236023630e-01 0.0000000000000000e+00  1.5019399158175259e-01 -6.2597873750090616e-01 0.0000000000000000e+00  5.0089273022491498e-02 -5.8262720434227255e-01 0.0000000000000000e+00  1.7826692585937992e-01 -4.4098053465594383e-01 0.0000000000000000e+00  1.1990156451664025e-01 -4.5230739720537533e-01 0.0000000000000000e+00  6.8226190667305911e-02 -3.8745105947027431e-01 0.0000000000000000e+00  1.6433810918211059e-01 -2.5447246872813961e-01 0.0000000000000000e+00  1.2694568816645710e-01 -4.2642471390050396e-01 0.0000000000000000e+00  2.7413923424616737e-01 -4.3871820365539937e-01 0.0000000000000000e+00  2.6262088800946032e-01 -2.9404124828401745e-01 0.0000000000000000e+00  4.0158219194773886e-02 -1.8259569169135462e-01 0.0000000000000000e+00  6.4592546038990437e-02 -2.0736431204407166e-01 0.0000000000000000e+00  1.5088981054644834e-01 -2.8599534125492038e-01 0.0000000000000000e+00  5.1192329605749431e-02 -3.2621484865595179e-01 0.0000000000000000e+00  1.3044198276131103e-01 -3.9954820605651764e-01 0.0000000000000000e+00  7.0670724912814384e-02 -3.9613153865928358e-01 0.0000000000000000e+00  1.5627191802139936e-02 -4.4992210053948783e-01 0.0000000000000000e+00  1.4610496272617207e-01 -4.7842204897291918e-01 0.0000000000000000e+00  -1.4318581152058410e-02 -5.1230548493482009e-01 0.0000000000000000e+00  1.1300437249706413e-01 -5.2817142589384514e-01 0.0000000000000000e+00  -4.2216386297450496e-02 -5.2884022596693459e-01 0.0000000000000000e+00  1.1926756360887904e-01 -5.4070954632698487e-01 0.0000000000000000e+00  -4.2485437336965033e-03 -5.7965375221629845e-01 0.0000000000000000e+00  1.3220138327568590e-01 -6.4807226380691341e-01 0.0000000000000000e+00  -1.1482599798143739e-01 -6.5180444577661900e-01 0.0000000000000000e+00  2.4283740452242696e-02 -5.9931146205014652e-01 0.0000000000000000e+00  -1.1340905791286955e-01 -5.6978016049495528e-01 0.0000000000000000e+00  4.0230958569723127e-02 -5.5329484952866703e-01 0.0000000000000000e+00  -1.1894035453138539e-01 -5.3553418927046592e-01 0.0000000000000000e+00  1.4482876533107510e-02 -5.0314988892110046e-01 0.0000000000000000e+00  -1.1630862796725550e-01 -4.7741186319667511e-01 0.0000000000000000e+00  7.0796239180586310e-03 -4.4823322141925198e-01 0.0000000000000000e+00  -1.0753850430288837e-01 -4.1700900450108885e-01 0.0000000000000000e+00  3.4858820639619300e-03 -3.9857499345900671e-01 0.0000000000000000e+00  -4.8008244392981597e-02 -3.7029255307715658e-01 0.0000000000000000e+00  -8.1753153050056815e-02 -3.6786264480661496e-01 0.0000000000000000e+00  -1.4214070894513800e-02 -3.2355799673321006e-01 0.0000000000000000e+00  -6.5681119031607449e-02 -3.2637949934710742e-01 0.0000000000000000e+00  -1.6420189746824034e-03 -3.2151348421887427e-01 0.0000000000000000e+00  -5.7015521227873116e-02 -3.1965363147300802e-01 0.0000000000000000e+00  -1.5770775857077454e-03 -3.1508797894471635e-01 0.0000000000000000e+00  -4.9927114596821524e-02 -3.0616653266788435e-01 0.0000000000000000e+00  6.3068921632919613e-03 -3.1846030788494811e-01 0.0000000000000000e+00  -1.6747746659548812e-02 -3.1560407738753132e-01 0.0000000000000000e+00  -8.6595865648917539e-02 -3.2431546284256546e-01 0.0000000000000000e+00  -1.0480273123711321e-02 -2.8280651909144056e-01 0.0000000000000000e+00  -9.2199373573475185e-02 -2.6658228358203206e-01 0.0000000000000000e+00  -2.3610143830783772e-02 -2.2822649738895182e-01 0.0000000000000000e+00  -8.1833824989055975e-02 -1.9146899943705409e-01 0.0000000000000000e+00  -2.5142760874428609e-02 -1.3859522613641290e-01 0.0000000000000000e+00  -6.1732403577403880e-02 -7.4049875408980573e-02 0.0000000000000000e+00  -1.8579472110651044e-02 1.5781178371130689e-02 0.0000000000000000e+00  -3.7464352844677501e-02 1.3101002690388897e-01 0.0000000000000000e+00  2.9546409749479297e-02 1.8988744015677980e-01 0.0000000000000000e+00  -1.1904757558361151e-01 4.4222940053320503e-01 0.0000000000000000e+00  -2.0744339309025969e-01 7.8486478330531040e-01 0.0000000000000000e+00  -2.2113520506477138e-01 6.3318200299485927e-01 0.0000000000000000e+00  -9.8316226334783634e-03 -3.8463087411155134e-01 0.0000000000000000e+00  -1.3754995407527853e-02 2.1559778080767725e-01 0.0000000000000000e+00  7.1756913371724780e-03 2.7049117047617099e-01 0.0000000000000000e+00  7.7204046924524610e-03 3.9649393255943977e-01 0.0000000000000000e+00  -5.6011039290907380e-02 -2.7786140215301269e-01 0.0000000000000000e+00  2.4710235327889712e-02 4.4895341619459206e-01 0.0000000000000000e+00  1.3151770799910520e-02 -8.6973108488824238e-02 0.0000000000000000e+00  3.9534067529515542e-02 4.3980348174110839e-01 0.0000000000000000e+00  4.6953512994967117e-03 1.3057351123625008e-01 0.0000000000000000e+00  -7.9229010413015076e-04 1.9454729171555155e-01 0.0000000000000000e+00  -1.0225798968330008e-01 5.2362996855918365e-01 0.0000000000000000e+00  4.9390686459540555e-03 2.4929835782834373e-01 0.0000000000000000e+00  -4.1620745193263198e-02 4.7373284492810042e-01 0.0000000000000000e+00  -3.8234069970609482e-03 2.2381489302387164e-01 0.0000000000000000e+00  -9.7901465422905120e-04 2.4815802191713046e-01 0.0000000000000000e+00  -1.1414404182330648e-02 4.3787843280550015e-01 0.0000000000000000e+00  9.4458134025481533e-02 5.2608803812823757e-01 0.0000000000000000e+00  -1.0187393673134787e-02 2.5677127787351500e-01 0.0000000000000000e+00  -8.3150511309931126e-03 3.8807095615363418e-01 0.0000000000000000e+00  -1.7199604339398513e-03 2.6790892373333175e-01 0.0000000000000000e+00  -1.4917184790974375e-02 3.3477534306311235e-01 0.0000000000000000e+00  8.4703359175670907e-03 2.4695556226062992e-01 0.0000000000000000e+00  -7.8006858217287162e-04 2.0805121501256202e-01 0.0000000000000000e+00  -8.8560264172575821e-03 2.8745318672553938e-01 0.0000000000000000e+00  5.0334124649226665e-03 4.7092756656867275e-02 0.0000000000000000e+00  -2.0895266253982826e-03 1.9659804816517412e-01 0.0000000000000000e+00  -8.7491927721860180e-02 -3.5642624441091519e-01 0.0000000000000000e+00  4.3921385002585753e-03 3.0071780199441994e-01 0.0000000000000000e+00  -2.0776540008943627e-02 3.1627971564971669e-01 0.0000000000000000e+00  2.6303015434626317e-02 -1.1636909670935154e-01 0.0000000000000000e+00  1.7849242937493622e-02 1.2161104061284096e-01 0.0000000000000000e+00  1.3452932304803896e-02 3.2592649798920348e-01 0.0000000000000000e+00  -1.8060190501214553e-02 3.0327629961604735e-01 0.0000000000000000e+00  -1.0810746399342626e-02 1.7700235234610148e-01 0.0000000000000000e+00  4.4525462197535741e-04 3.1461704145088137e-01 0.0000000000000000e+00  1.6582754718583573e-02 1.4830843568779764e-01 0.0000000000000000e+00  1.0403059856919897e-03 1.8023740416354531e-01 0.0000000000000000e+00  4.7440536269429349e-03 2.9860321878589391e-01 0.0000000000000000e+00  -2.1225663641781657e-03 4.5475093975037606e-01 0.0000000000000000e+00  1.6523460085755823e-02 2.0670609980013327e-01 0.0000000000000000e+00  8.4061169856062424e-03 2.4116207763609201e-01 0.0000000000000000e+00  -4.8966706402530355e-02 -3.5579473124659516e-01 0.0000000000000000e+00  1.4217974805776923e-01 -3.0926417421748781e-01 0.0000000000000000e+00  -1.4277922577094604e-01 1.7254941684538252e-01 0.0000000000000000e+00  1.7240831560906864e-02 -3.5307093211478291e-01 0.000000