<?xml version="1.0"?>
<VTKFile type="UnstructuredGrid"  version="0.1"  >
<UnstructuredGrid>
<Piece  NumberOfPoints="1419" NumberOfCells="2698">
<Points>
<DataArray  type="Float64"  NumberOfComponents="3"  format="ascii">4.1834628802683e-09 -1.085255444113881e-06 0  1.69645913171299e-08 0.4099989100601828 0  2.50000002639174 -1.590292466244134e-06 0  2.50000002639175 0.4099984097075473 0  0.600000028295523 0.1899983564931488 0  0.6000000372280979 0.2099983582779636 0  0.25 0.2 0  0.1500000102621574 0.1999989222412221 0  0.2489897948556636 0.21 0  0.2489897948556636 0.19 0  0.6000000346409607 0.1999983505988226 0  1.682016201484208e-08 0.3807131960915285 0  1.640868850444708e-08 0.3514274826682258 0  1.571686184510588e-08 0.3221417696623613 0  1.474441696475632e-08 0.2928560567977601 0  1.354031702053712e-08 0.263570343861835 0  1.215068048851507e-08 0.2342846307122158 0  1.063129873062294e-08 0.2049989171353182 0  9.106201386670546e-09 0.1757132031670043 0  7.685510977133603e-09 0.1464274887671879 0  6.439634316984793e-09 0.1171417740162285 0  5.465723889401152e-09 0.08785605904409206 0  4.74650420023831e-09 0.05857034404121186 0  4.319458802453293e-09 0.02928462921770205 0  0.03015444164325098 -1.085466456090763e-06 0  0.06140002343581129 -1.08623108581358e-06 0  0.09377624352035843 -1.087965581231081e-06 0  0.1273239973380446 -1.091396939777593e-06 0  0.1620856861758473 -1.09783100001086e-06 0  0.198105241890745 -1.110470290514926e-06 0  0.2354281812724515 -1.134100093948553e-06 0  0.2741016540100786 -1.17179098875583e-06 0  0.3141745485806737 -1.223961418767341e-06 0  0.3556974904124084 -1.288543899023421e-06 0  0.3987229545461223 -1.357892855625371e-06 0  0.4433053093880459 -1.424102104204168e-06 0  0.4895008840753083 -1.481960687050692e-06 0  0.5373680735311623 -1.526764368356502e-06 0  0.5869673509630696 -1.556926797170603e-06 0  0.6383613876095393 -1.575352139482558e-06 0  0.6916151361269842 -1.58444030965073e-06 0  0.7467958833726752 -1.588417974481406e-06 0  0.8039733711897632 -1.590021623409412e-06 0  0.8632198393655249 -1.590541124938645e-06 0  0.9246101584884211 -1.590619899190998e-06 0  0.9882219071242903 -1.590555340651029e-06 0  1.054135471737331 -1.590476982313675e-06 0  1.122434126806828 -1.590411655524522e-06 0  1.193204203460027 -1.590364263297569e-06 0  1.266535116230365 -1.59033400411281e-06 0  1.342519542415127 -1.590316183103349e-06 0  1.421253474883025 -1.590305622986892e-06 0  1.502836415491354 -1.590299424260996e-06 0  1.587371466147126 -1.59029608471467e-06 0  1.67496544516735 -1.590294316702339e-06 0  1.765729028216417 -1.590293375574965e-06 0  1.859776935271395 -1.590292912861223e-06 0  1.957228003878606 -1.590292670220342e-06 0  2.058205356261592 -1.590292559754739e-06 0  2.162836617581653 -1.590292503377791e-06 0  2.27125398368259 -1.590292479488187e-06 0  2.383594473195159 -1.590292469264219e-06 0  2.50000002639174 0.1024984097072969 0  2.500000026391744 0.2049984097070147 0  2.50000002639175 0.3074984097072636 0  2.383594473195409 0.4099984097075502 0  2.271253983683077 0.4099984097075607 0  2.162836617582385 0.4099984097075857 0  2.058205356262614 0.4099984097076395 0  1.95722800388001 0.4099984097077488 0  1.85977693527343 0.4099984097080033 0  1.765729028219476 0.4099984097084645 0  1.674965445172369 0.4099984097094448 0  1.58737146615564 0.4099984097112183 0  1.502836415506369 0.4099984097145967 0  1.421253474910243 0.4099984097211287 0  1.342519542463031 0.4099984097322288 0  1.266535116313761 0.409998409751647 0  1.193204203606985 0.409998409788239 0  1.122434127061058 0.4099984098539183 0  1.054135472157742 0.4099984099638551 0  0.9882219078262712 0.409998410181928 0  0.9246101596217502 0.4099984105829648 0  0.8632198411792545 0.4099984113520159 0  0.803973374029441 0.409998412892206 0  0.7467958877319982 0.4099984159848619 0  0.6916151426082345 0.4099984220136422 0  0.6383613969571438 0.4099984337484414 0  0.5869673639502001 0.4099984539003734 0  0.5373680906771326 0.409998485017146 0  0.4895009056489508 0.4099985292524221 0  0.443305335188554 0.4099985843392893 0  0.3987229837405078 0.4099986465636425 0  0.3556975216041959 0.4099987109174809 0  0.3141745801090791 0.4099987709881779 0  0.2741016841143205 0.4099988208594774 0  0.235428208776276 0.4099988567028034 0  0.1981052661281374 0.4099988802658154 0  0.1620857070731598 0.40999889409205 0  0.1273240152851982 0.4099989018037426 0  0.0937762591364048 0.4099989062474463 0  0.06140003743373394 0.4099989085586905 0  0.03015445469956855 0.4099989097600154 0  0.2497468076502589 0.2050254481002335 0  0.2497468076502614 0.1949745518997913 0  0.2469965132957193 0.18293117606599 0  0.2439893607643678 0.176230919029612 0  0.2400332028493712 0.1700435083252884 0  0.2352133867406691 0.1645023884400611 0  0.2296338926260018 0.1597270788504701 0  0.2234150899416263 0.1558205928382888 0  0.2166911403468411 0.1528672021119149 0  0.2096071033289731 0.1509306187221832 0  0.2023158068426399 0.1500526183376961 0  0.1949745500268791 0.1502521420625617 0  0.1877417099708878 0.1515248836680734 0  0.1807733247291331 0.153843385108136 0  0.174219727215743 0.1571576271571666 0  0.1682223018050955 0.1613961095696383 0  0.1629104343577357 0.1664673927056403 0  0.158398720715159 0.1722620708347504 0  0.1547844946456348 0.1786551319034769 0  0.1521457278371637 0.1855086547936847 0  0.1505393479430574 0.1926747845370196 0  0.1505393502827979 0.2073230601937559 0  0.152145732539356 0.2144891907153581 0  0.1547845016613823 0.2213427149543477 0  0.158398730082603 0.2277357781113186 0  0.1629104460422361 0.2335304592034654 0  0.1682223158549551 0.2386017466141947 0  0.1742197435851293 0.2428402347764217 0  0.1807733434609967 0.2461544848027246 0  0.187741731065343 0.2484729972079599 0  0.1949745735013269 0.2497457539258029 0  0.202315832672978 0.2499452976289115 0  0.2096071315698471 0.2490673251378738 0  0.2166911709265067 0.2471307784745651 0  0.2234151228520881 0.2441774390952438 0  0.2296339277412634 0.2402710228037001 0  0.2352134237701205 0.2354958119694122 0  0.2400332411639726 0.2299548305451717 0  0.2439893986208358 0.2237676390755189 0  0.2469965458981149 0.2170677590598221 0  0.2564581244848675 0.2099994798018306 0  0.2639264332694756 0.2099993030450359 0  0.2713947403936193 0.2099991877125118 0  0.2788630424068997 0.2099990990259502 0  0.2863313450621083 0.2099990259472562 0  0.2937996483474074 0.2099989617674362 0  0.3012679505193185 0.2099989031995216 0  0.3087362516657649 0.2099988615631608 0  0.3162045570132206 0.2099988216401684 0  0.3236728573058003 0.2099987845542809 0  0.3311411627557294 0.2099987511554908 0  0.3386094623210623 0.2099987204320506 0  0.3460777666702228 0.2099986909514393 0  0.3535460667372043 0.2099986587766328 0  0.3610143668405443 0.209998642975925 0  0.3684826703083388 0.2099986241690743 0  0.3759509692873658 0.2099986044090391 0  0.3834192726418758 0.2099985858773823 0  0.390887571539881 0.2099985679116646 0  0.3983558749427709 0.2099985510145436 0  0.4058241735860684 0.2099985339679001 0  0.413292476568874 0.2099985159790314 0  0.4207607753797121 0.2099984940673837 0  0.4282290753363239 0.2099984853667073 0  0.435697378306182 0.2099984733343063 0  0.4431656780170062 0.2099984599750001 0  0.4506339813664347 0.2099984464686093 0  0.4581022810223261 0.2099984334074652 0  0.4655705848536556 0.2099984207341098 0  0.473038884395115 0.2099984085055953 0  0.4805071887446241 0.2099983965651994 0  0.4879754886811646 0.2099983851488801 0  0.4954437937934829 0.2099983738071143 0  0.502912093670778 0.2099983641496672 0  0.5103803991268653 0.2099983557294838 0  0.5178486996158966 0.2099983482521182 0  0.5253170067057054 0.209998340717049 0  0.5327853073433755 0.2099983336690186 0  0.5402536144812587 0.2099983281154418 0  0.5477219156696291 0.2099983245037979 0  0.5551902235482166 0.2099983190550649 0  0.5626585258956347 0.2099983094151241 0  0.5701268272184586 0.2099983233164502 0  0.5775951344193804 0.2099983323602369 0  0.5850634350964032 0.2099983382342605 0  0.5925317387807834 0.2099983479648646 0  0.6000000382738923 0.2049983531334585 0  0.6000000296347962 0.1949983537543893 0  0.5925317252625798 0.1899983450029139 0  0.5850634255618279 0.1899983331332176 0  0.5775951198622126 0.1899983235789713 0  0.5701268196733335 0.1899983143970312 0  0.5626585146369939 0.1899983011825478 0  0.5551902083892754 0.1899983087169415 0  0.5477219080773824 0.1899983112694923 0  0.5402536005288298 0.1899983140049868 0  0.5327853004547565 0.1899983182706313 0  0.5253169923083337 0.1899983240300598 0  0.5178486910403016 0.1899983310391464 0  0.5103803833645211 0.1899983390450904 0  0.5029120829572176 0.1899983479402811 0  0.4954437757035198 0.1899983580071097 0  0.4879754751899713 0.1899983690802316 0  0.4805071681551885 0.1899983810131526 0  0.473038866822983 0.1899983935011835 0  0.4655705601615061 0.1899984066657207 0  0.4581022595017096 0.1899984202920057 0  0.4506339535823068 0.1899984344045367 0  0.4431656528092838 0.1899984489241428 0  0.4356973467715155 0.1899984637190434 0  0.4282290451391779 0.1899984778668712 0  0.4207607398435984 0.1899984884502907 0  0.4132924353705978 0.1899985114316838 0  0.4058241343873673 0.1899985315515078 0  0.3983558296091689 0.1899985498269174 0  0.3908875281826893 0.1899985684594439 0  0.3834192232056327 0.1899985873856024 0  0.3759509215330621 0.1899986068137353 0  0.3684826166475179 0.1899986269767008 0  0.361014315559008 0.1899986458614399 0  0.353546010632341 0.1899986626209869 0  0.3460777048737819 0.1899986951039674 0  0.3386094033680614 0.1899987259056295 0  0.3311410975964615 0.1899987569778084 0  0.3236727968619252 0.1899987905022075 0  0.3162044918634562 0.1899988273266874 0  0.3087361913362305 0.1899988665070801 0  0.3012678865592442 0.1899989077464711 0  0.2937995834573028 0.189998965542658 0  0.2863312816936028 0.1899990293029268 0  0.2788629795358751 0.1899991020811687 0  0.2713946756044801 0.189999190792258 0  0.2639263758589057 0.1899993073111976 0  0.2564580769336143 0.1899994830349822 0
[...]
<PointData  Vectors="f_30-0"> 
<DataArray  type="Float64"  Name="f_30-0"  NumberOfComponents="3" format="ascii">0.0000000000000000e+00 0.0000000000000000e+00 0.0000000000000000e+00  0.0000000000000000e+00 0.0000000000000000e+00 0.0000000000000000e+00  0.0000000000000000e+00 0.0000000000000000e+00 0.0000000000000000e+00  0.0000000000000000e+00 0.0000000000000000e+00 0.0000000000000000e+00  9.1355438724271040e-03 -5.2179858646035700e-02 0.0000000000000000e+00  2.0736057174512150e-02 -4.6669413959433290e-02 0.0000000000000000e+00  0.0000000000000000e+00 0.0000000000000000e+00 0.0000000000000000e+00  0.0000000000000000e+00 0.0000000000000000e+00 0.0000000000000000e+00  0.0000000000000000e+00 0.0000000000000000e+00 0.0000000000000000e+00  0.0000000000000000e+00 0.0000000000000000e+00 0.0000000000000000e+00  4.5657683983362951e-02 -1.2445776895413434e-01 0.0000000000000000e+00  0.0000000000000000e+00 0.0000000000000000e+00 0.0000000000000000e+00  0.0000000000000000e+00 0.0000000000000000e+00 0.0000000000000000e+00  0.0000000000000000e+00 0.0000000000000000e+00 0.0000000000000000e+00  0.0000000000000000e+00 0.0000000000000000e+00 0.0000000000000000e+00  0.0000000000000000e+00 0.0000000000000000e+00 0.0000000000000000e+00  0.0000000000000000e+00 0.0000000000000000e+00 0.0000000000000000e+00  0.0000000000000000e+00 0.0000000000000000e+00 0.0000000000000000e+00  0.0000000000000000e+00 0.0000000000000000e+00 0.0000000000000000e+00  0.0000000000000000e+00 0.0000000000000000e+00 0.0000000000000000e+00  0.0000000000000000e+00 0.0000000000000000e+00 0.0000000000000000e+00  0.0000000000000000e+00 0.0000000000000000e+00 0.0000000000000000e+00  0.0000000000000000e+00 0.0000000000000000e+00 0.0000000000000000e+00  0.0000000000000000e+00 0.0000000000000000e+00 0.0000000000000000e+00  0.0000000000000000e+00 0.0000000000000000e+00 0.0000000000000000e+00  0.0000000000000000e+00 0.0000000000000000e+00 0.0000000000000000e+00  0.0000000000000000e+00 0.0000000000000000e+00 0.0000000000000000e+00  0.0000000000000000e+00 0.0000000000000000e+00 0.0000000000000000e+00  0.0000000000000000e+00 0.0000000000000000e+00 0.0000000000000000e+00  0.0000000000000000e+00 0.0000000000000000e+00 0.0000000000000000e+00  0.0000000000000000e+00 0.0000000000000000e+00 0.0000000000000000e+00  0.0000000000000000e+00 0.0000000000000000e+00 0.0000000000000000e+00  0.0000000000000000e+00 0.0000000000000000e+00 0.0000000000000000e+00  0.0000000000000000e+00 0.0000000000000000e+00 0.0000000000000000e+00  0.0000000000000000e+00 0.0000000000000000e+00 0.0000000000000000e+00  0.0000000000000000e+00 0.0000000000000000e+00 0.0000000000000000e+00  0.0000000000000000e+00 0.0000000000000000e+00 0.0000000000000000e+00  0.0000000000000000e+00 0.0000000000000000e+00 0.0000000000000000e+00  0.0000000000000000e+00 0.0000000000000000e+00 0.0000000000000000e+00  0.0000000000000000e+00 0.0000000000000000e+00 0.0000000000000000e+00  0.0000000000000000e+00 0.0000000000000000e+00 0.0000000000000000e+00  0.0000000000000000e+00 0.0000000000000000e+00 0.0000000000000000e+00  0.0000000000000000e+00 0.0000000000000000e+00 0.0000000000000000e+00  0.0000000000000000e+00 0.0000000000000000e+00 0.0000000000000000e+00  0.0000000000000000e+00 0.0000000000000000e+00 0.0000000000000000e+00  0.0000000000000000e+00 0.0000000000000000e+00 0.0000000000000000e+00  0.0000000000000000e+00 0.0000000000000000e+00 0.0000000000000000e+00  0.0000000000000000e+00 0.0000000000000000e+00 0.0000000000000000e+00  0.0000000000000000e+00 0.0000000000000000e+00 0.0000000000000000e+00  0.0000000000000000e+00 0.0000000000000000e+00 0.0000000000000000e+00  0.0000000000000000e+00 0.0000000000000000e+00 0.0000000000000000e+00  0.0000000000000000e+00 0.0000000000000000e+00 0.0000000000000000e+00  0.0000000000000000e+00 0.0000000000000000e+00 0.0000000000000000e+00  0.0000000000000000e+00 0.0000000000000000e+00 0.0000000000000000e+00  0.0000000000000000e+00 0.0000000000000000e+00 0.0000000000000000e+00  0.0000000000000000e+00 0.0000000000000000e+00 0.0000000000000000e+00  0.0000000000000000e+00 0.0000000000000000e+00 0.0000000000000000e+00  0.0000000000000000e+00 0.0000000000000000e+00 0.0000000000000000e+00  0.0000000000000000e+00 0.0000000000000000e+00 0.0000000000000000e+00  0.0000000000000000e+00 0.0000000000000000e+00 0.0000000000000000e+00  0.0000000000000000e+00 0.0000000000000000e+00 0.0000000000000000e+00  0.0000000000000000e+00 0.0000000000000000e+00 0.0000000000000000e+00  5.4193098148404183e-09 1.7776240544053466e-09 0.0000000000000000e+00  -2.0877173023669975e-10 2.3234345284784941e-09 0.0000000000000000e+00  -5.7353138051485091e-09 2.1566628593910989e-09 0.0000000000000000e+00  0.0000000000000000e+00 0.0000000000000000e+00 0.0000000000000000e+00  0.0000000000000000e+00 0.0000000000000000e+00 0.0000000000000000e+00  0.0000000000000000e+00 0.0000000000000000e+00 0.0000000000000000e+00  0.0000000000000000e+00 0.0000000000000000e+00 0.0000000000000000e+00  0.0000000000000000e+00 0.0000000000000000e+00 0.0000000000000000e+00  0.0000000000000000e+00 0.0000000000000000e+00 0.0000000000000000e+00  0.0000000000000000e+00 0.0000000000000000e+00 0.0000000000000000e+00  0.0000000000000000e+00 0.0000000000000000e+00 0.0000000000000000e+00  0.0000000000000000e+00 0.0000000000000000e+00 0.0000000000000000e+00  0.0000000000000000e+00 0.0000000000000000e+00 0.0000000000000000e+00  0.0000000000000000e+00 0.0000000000000000e+00 0.0000000000000000e+00  0.0000000000000000e+00 0.0000000000000000e+00 0.0000000000000000e+00  0.0000000000000000e+00 0.0000000000000000e+00 0.0000000000000000e+00  0.0000000000000000e+00 0.0000000000000000e+00 0.0000000000000000e+00  0.0000000000000000e+00 0.0000000000000000e+00 0.0000000000000000e+00  0.0000000000000000e+00 0.0000000000000000e+00 0.0000000000000000e+00  0.0000000000000000e+00 0.0000000000000000e+00 0.0000000000000000e+00  0.0000000000000000e+00 0.0000000000000000e+00 0.0000000000000000e+00  0.0000000000000000e+00 0.0000000000000000e+00 0.0000000000000000e+00  0.0000000000000000e+00 0.0000000000000000e+00 0.0000000000000000e+00  0.0000000000000000e+00 0.0000000000000000e+00 0.0000000000000000e+00  0.0000000000000000e+00 0.0000000000000000e+00 0.0000000000000000e+00  0.0000000000000000e+00 0.0000000000000000e+00 0.0000000000000000e+00  0.0000000000000000e+00 0.0000000000000000e+00 0.0000000000000000e+00  0.0000000000000000e+00 0.0000000000000000e+00 0.0000000000000000e+00  0.0000000000000000e+00 0.0000000000000000e+00 0.0000000000000000e+00  0.0000000000000000e+00 0.0000000000000000e+00 0.0000000000000000e+00  0.0000000000000000e+00 0.0000000000000000e+00 0.0000000000000000e+00  0.0000000000000000e+00 0.0000000000000000e+00 0.0000000000000000e+00  0.0000000000000000e+00 0.0000000000000000e+00 0.0000000000000000e+00  0.0000000000000000e+00 0.0000000000000000e+00 0.0000000000000000e+00  0.0000000000000000e+00 0.0000000000000000e+00 0.0000000000000000e+00  0.0000000000000000e+00 0.0000000000000000e+00 0.0000000000000000e+00  0.0000000000000000e+00 0.0000000000000000e+00 0.0000000000000000e+00  0.0000000000000000e+00 0.0000000000000000e+00 0.0000000000000000e+00  0.0000000000000000e+00 0.0000000000000000e+00 0.0000000000000000e+00  0.0000000000000000e+00 0.0000000000000000e+00 0.0000000000000000e+00  0.0000000000000000e+00 0.0000000000000000e+00 0.0000000000000000e+00  0.0000000000000000e+00 0.0000000000000000e+00 0.0000000000000000e+00  0.0000000000000000e+00 0.0000000000000000e+00 0.0000000000000000e+00  0.0000000000000000e+00 0.0000000000000000e+00 0.0000000000000000e+00  0.0000000000000000e+00 0.0000000000000000e+00 0.0000000000000000e+00  0.0000000000000000e+00 0.0000000000000000e+00 0.0000000000000000e+00  0.0000000000000000e+00 0.0000000000000000e+00 0.0000000000000000e+00  0.0000000000000000e+00 0.0000000000000000e+00 0.0000000000000000e+00  0.0000000000000000e+00 0.0000000000000000e+00 0.0000000000000000e+00  0.0000000000000000e+00 0.0000000000000000e+00 0.0000000000000000e+00  0.0000000000000000e+00 0.0000000000000000e+00 0.0000000000000000e+00  0.0000000000000000e+00 0.0000000000000000e+00 0.0000000000000000e+00  0.0000000000000000e+00 0.0000000000000000e+00 0.0000000000000000e+00  0.0000000000000000e+00 0.0000000000000000e+00 0.0000000000000000e+00  0.0000000000000000e+00 0.0000000000000000e+00 0.0000000000000000e+00  0.0000000000000000e+00 0.0000000000000000e+00 0.0000000000000000e+00  0.0000000000000000e+00 0.0000000000000000e+00 0.0000000000000000e+00  0.0000000000000000e+00 0.0000000000000000e+00 0.0000000000000000e+00  0.0000000000000000e+00 0.0000000000000000e+00 0.0000000000000000e+00  0.0000000000000000e+00 0.0000000000000000e+00 0.0000000000000000e+00  0.0000000000000000e+00 0.0000000000000000e+00 0.0000000000000000e+00  0.0000000000000000e+00 0.0000000000000000e+00 0.0000000000000000e+00  0.0000000000000000e+00 0.0000000000000000e+00 0.0000000000000000e+00  0.0000000000000000e+00 0.0000000000000000e+00 0.0000000000000000e+00  0.0000000000000000e+00 0.0000000000000000e+00 0.0000000000000000e+00  0.0000000000000000e+00 0.0000000000000000e+00 0.0000000000000000e+00  0.0000000000000000e+00 0.0000000000000000e+00 0.0000000000000000e+00  0.0000000000000000e+00 0.0000000000000000e+00 0.0000000000000000e+00  0.0000000000000000e+00 0.0000000000000000e+00 0.0000000000000000e+00  0.0000000000000000e+00 0.0000000000000000e+00 0.0000000000000000e+00  0.0000000000000000e+00 0.0000000000000000e+00 0.0000000000000000e+00  0.0000000000000000e+00 0.0000000000000000e+00 0.0000000000000000e+00  0.0000000000000000e+00 0.0000000000000000e+00 0.0000000000000000e+00  0.0000000000000000e+00 0.0000000000000000e+00 0.0000000000000000e+00  0.0000000000000000e+00 0.0000000000000000e+00 0.0000000000000000e+00  0.0000000000000000e+00 0.0000000000000000e+00 0.0000000000000000e+00  0.0000000000000000e+00 0.0000000000000000e+00 0.0000000000000000e+00  0.0000000000000000e+00 0.0000000000000000e+00 0.0000000000000000e+00  0.0000000000000000e+00 0.0000000000000000e+00 0.0000000000000000e+00  0.0000000000000000e+00 0.0000000000000000e+00 0.0000000000000000e+00  0.0000000000000000e+00 0.0000000000000000e+00 0.0000000000000000e+00  8.5296867423338113e-02 2.5738469265013458e-01 0.0000000000000000e+00  6.7739539480895616e-02 1.9964403341887443e-01 0.0000000000000000e+00  6.5417780791422103e-02 1.1521907780098885e-01 0.0000000000000000e+00  3.2991713297050307e-02 1.9907168927122573e-02 0.0000000000000000e+00  2.6168391954811781e-02 -2.2609136138149560e-02 0.0000000000000000e+00  2.3322982068397141e-02 -9.3549482302204071e-02 0.0000000000000000e+00  2.8523427084961448e-02 -1.2768649281494671e-01 0.0000000000000000e+00  -6.6180562069038801e-03 -1.5069939474093533e-01 0.0000000000000000e+00  3.4888203131187949e-02 -1.5244675314914402e-01 0.0000000000000000e+00  -6.7054346379951087e-03 -1.6527252944601972e-01 0.0000000000000000e+00  3.5267919214768489e-02 -1.7475375014766609e-01 0.0000000000000000e+00  -5.8273228393253013e-03 -1.7561921377223930e-01 0.0000000000000000e+00  4.0873243688268140e-02 -1.8914405279602073e-01 0.0000000000000000e+00  4.9138316229981344e-03 -1.8463045422674698e-01 0.0000000000000000e+00  1.4605527247546610e-04 -1.7315560506757102e-01 0.0000000000000000e+00  1.7136908474378446e-02 -1.5251927466582171e-01 0.0000000000000000e+00  -3.3868180336638874e-03 -1.6146113668845063e-01 0.0000000000000000e+00  1.6924143619339364e-02 -1.5017506999397662e-01 0.0000000000000000e+00  -8.3301508810725271e-03 -1.5242395066592587e-01 0.0000000000000000e+00  1.9838239762969938e-02 -1.5240471425509514e-01 0.0000000000000000e+00  -1.5693136266913987e-02 -1.5246895432368668e-01 0.0000000000000000e+00  2.7022391345292471e-02 -1.5813777317725974e-01 0.0000000000000000e+00  -1.0351426916668689e-02 -1.5867869654890177e-01 0.0000000000000000e+00  -1.7801588551661609e-02 -1.6188909411292352e-01 0.0000000000000000e+00  2.2553992627326195e-03 -1.6983762836899444e-01 0.0000000000000000e+00  -1.4373856329173358e-02 -1.7253134753866847e-01 0.0000000000000000e+00  6.6522915219988077e-04 -1.8311813510852648e-01 0.0000000000000000e+00  -2.5122994216921178e-02 -1.9365474660438700e-01 0.0000000000000000e+00  1.2131669312654123e-02 -1.9742675231510315e-01 0.0000000000000000e+00  -3.5134882642052584e-02 -2.0237599983934249e-01 0.0000000000000000e+00  1.4860903610209629e-02 -2.1497611570104863e-01 0.0000000000000000e+00  -3.2921160710164855e-02 -2.1393340142925310e-01 0.0000000000000000e+00  9.7614101622533513e-03 -2.4998621396324489e-01 0.0000000000000000e+00  -3.0187597058034282e-02 -2.5228522552982169e-01 0.0000000000000000e+00  1.4218246972940912e-02 -2.4004114922835557e-01 0.0000000000000000e+00  -3.5225979557511604e-02 -2.3063262499434417e-01 0.0000000000000000e+00  2.0976810425392470e-02 -2.4170183627905242e-01 0.0000000000000000e+00  -3.8339471986572130e-02 -2.6515779510806647e-01 0.0000000000000000e+00  3.1196664754642334e-02 -2.7498071344500247e-01 0.0000000000000000e+00  -2.5885185326066588e-02 -2.5131929567398598e-01 0.0000000000000000e+00  3.5213727970155428e-02 -2.5508761588418399e-01 0.0000000000000000e+00  1.1125941587532898e-02 -2.4505562341988774e-01 0.0000000000000000e+00  -1.5843686759388059e-02 -2.2206529692633104e-01 0.0000000000000000e+00  4.4338040897119756e-02 -1.7912035017936537e-01 0.0000000000000000e+00  8.9271627169705131e-03 -2.0908904124818256e-01 0.0000000000000000e+00  8.1244534704672758e-02 -1.7035484544277590e-01 0.0000000000000000e+00  8.0625140381996543e-02 -1.2647599155341960e-01 0.0000000000000000e+00  -1.8627122016426741e-02 -9.9974294082779094e-02 0.0000000000000000e+00  -1.9932129414509735e-03 -1.2508935236589794e-01 0.0000000000000000e+00  4.7546996626696404e-02 -1.7272158790198322e-01 0.0000000000000000e+00  -8.6956173007572162e-05 -1.8920734605812348e-01 0.0000000000000000e+00  4.5482157457680743e-02 -2.2732281399044177e-01 0.0000000000000000e+00  1.7749436290324081e-02 -2.2146350694661929e-01 0.0000000000000000e+00  -2.3552761157482428e-02 -2.4324049208215245e-01 0.0000000000000000e+00  4.2546544163999625e-02 -2.3184772904394080e-01 0.0000000000000000e+00  -2.6630775413859425e-02 -2.3756904419722061e-01 0.0000000000000000e+00  3.6976477313067892e-02 -2.4009875608043482e-01 0.0000000000000000e+00  -2.8788748793568315e-02 -2.3897309313209567e-01 0.0000000000000000e+00  2.9847005934401104e-02 -2.3078059181949473e-01 0.0000000000000000e+00  -2.9571921140522140e-02 -2.2475178687312633e-01 0.0000000000000000e+00  2.8001385903394471e-02 -2.1479004238748528e-01 0.0000000000000000e+00  -3.2011824595408522e-02 -2.0994645796551659e-01 0.0000000000000000e+00  2.2139447500123331e-02 -2.0425512034039647e-01 0.0000000000000000e+00  -3.0319277487640944e-02 -1.9947109458018283e-01 0.0000000000000000e+00  1.8822327168070502e-02 -1.9084482972083799e-01 0.0000000000000000e+00  -2.9640755629145216e-02 -1.8285564838611504e-01 0.0000000000000000e+00  1.7140620122323345e-02 -1.7153725612611520e-01 0.0000000000000000e+00  -2.7816180720996592e-02 -1.6689677160503646e-01 0.0000000000000000e+00  1.6364084772142056e-02 -1.6402572620113992e-01 0.0000000000000000e+00  -2.4854352604647151e-02 -1.5898952777690636e-01 0.0000000000000000e+00  1.6923076001592062e-02 -1.6300067577801469e-01 0.0000000000000000e+00  -9.1806916118858922e-03 -1.5688293947247758e-01 0.0000000000000000e+00  -2.2150607550074808e-02 -1.5858285713791684e-01 0.0000000000000000e+00  4.4551180991460387e-03 -1.4784902376518894e-01 0.0000000000000000e+00  -1.9245026293602228e-02 -1.5649962406809870e-01 0.0000000000000000e+00  7.2060397289014236e-03 -1.6172633540908665e-01 0.0000000000000000e+00  -1.8097341811000076e-02 -1.6449930744983804e-01 0.0000000000000000e+00  7.1745463210101078e-03 -1.6650874013796324e-01 0.0000000000000000e+00  -1.6583385308711555e-02 -1.6254777486148658e-01 0.0000000000000000e+00  9.8317784844218822e-03 -1.7327007429660124e-01 0.0000000000000000e+00  -4.2541299830104053e-04 -1.7816859197304913e-01 0.0000000000000000e+00  -3.9497087986592315e-02 -1.8895311625331510e-01 0.0000000000000000e+00  8.5915493142177495e-03 -1.7678299973122757e-01 0.0000000000000000e+00  -4.2167856268868521e-02 -1.7766836094381067e-01 0.0000000000000000e+00  5.1821718803395063e-03 -1.6927639078450624e-01 0.0000000000000000e+00  -4.3316239589041114e-02 -1.5781441473833299e-01 0.0000000000000000e+00  2.1365015875084684e-03 -1.4805259056866374e-01 0.0000000000000000e+00  -3.3424476988070627e-02 -1.2446349379770241e-01 0.0000000000000000e+00  -3.3035736456454683e-02 -9.5049381131328284e-02 0.0000000000000000e+00  -3.1606699037972856e-02 -3.0189117603578793e-02 0.0000000000000000e+00  -3.0095063452577148e-02 1.1052657531588966e-02 0.0000000000000000e+00  -6.0324773465190350e-02 1.0889691832474062e-01 0.0000000000000000e+00  -7.8424196579632524e-02 2.1379282376305284e-01 0.0000000000000000e+00  -9.8939577865055819e-02 2.6366055527180476e-01 0.0000000000000000e+00  -4.5654700435305692e-03 -1.2100192657581162e-01 0.0000000000000000e+00  -7.1754231521340573e-03 1.1201005318728242e-01 0.0000000000000000e+00  -6.2495504781358920e-04 1.5797377728901840e-01 0.0000000000000000e+00  7.9068005829796353e-03 1.9635266382361777e-01 0.0000000000000000e+00  -5.4291432112080961e-03 -5.1779183962569253e-02 0.0000000000000000e+00  9.5475159002420386e-04 1.9991316591237332e-01 0.0000000000000000e+00  3.1193403052552195e-03 3.7335095101627691e-02 0.0000000000000000e+00  7.6598530332013806e-04 1.9027315329501091e-01 0.0000000000000000e+00  4.0961084284542419e-03 1.2201261714877790e-01 0.0000000000000000e+00  7.2628411728776370e-04 1.3653707751482133e-01 0.0000000000000000e+00  -4.0031409453111970e-03 1.8425890002042347e-01 0.0000000000000000e+00  3.9963971350889128e-03 1.3365627308724420e-01 0.0000000000000000e+00  -1.4202069250852138e-03 1.5906861343782691e-01 0.0000000000000000e+00  -3.2682094344841255e-03 1.3674751101134563e-01 0.0000000000000000e+00  3.2948700156347640e-04 1.2771954905667102e-01 0.0000000000000000e+00  -1.8143529196412442e-03 1.4816907127340526e-01 0.0000000000000000e+00  1.2833292790814545e-03 1.7356050758164046e-01 0.0000000000000000e+00  -2.2973234639489413e-03 1.2464564797324047e-01 0.0000000000000000e+00  -3.1291575253727971e-04 1.3694684148935712e-01 0.0000000000000000e+00  -9.6253188284923076e-04 1.2116419963445282e-01 0.0000000000000000e+00  -4.3331937360702455e-03 1.2849755956451350e-01 0.0000000000000000e+00  1.9631978617500982e-03 1.0277732698799338e-01 0.0000000000000000e+00  -1.0191661277030523e-03 1.1417199369138585e-01 0.0000000000000000e+00  -3.0690295454306139e-03 1.6040932059554813e-01 0.0000000000000000e+00  2.5129081608569076e-03 8.1556943538095755e-02 0.0000000000000000e+00  1.0515784641831880e-02 1.1682502631923342e-01 0.0000000000000000e+00  -3.4587442664209114e-02 -9.4292043187887017e-02 0.0000000000000000e+00  -3.6294278956109866e-03 1.3446792306962088e-01 0.0000000000000000e+00  -6.5646316919550302e-03 1.4317372291676492e-01 0.0000000000000000e+00  2.5676588560402832e-02 1.1624879308858143e-02 0.0000000000000000e+00  -1.6366366745008641e-03 9.3119951712055241e-02 0.0000000000000000e+00  -3.6747654863433080e-03 1.1368076219803679e-01 0.0000000000000000e+00  -8.7472135323834392e-04 1.2741355708089575e-01 0.0000000000000000e+00  -7.2758555001499756e-03 9.1901249345302707e-02 0.0000000000000000e+00  -2.9758067266457696e-04 1.0422460014701437e-01 0.0000000000000000e+00  8.2283459166563406e-04 9.5062466087646208e-02 0.0000000000000000e+00  -2.2429690746851687e-03 9.0136436041408405e-02 0.0000000000000000e+00  -1.4267666659581858e-03 1.0071048067191793e-01 0.0000000000000000e+00  -2.5265230151346432e-03 1.2935363930410090e-01 0.0000000000000000e+00  2.0175079471612019e-03 9.6012652922504799e-02 0.0000000000000000e+00  1.2848636722495295e-03 8.9329642525443009e-02 0.0000000000000000e+00  -2.6804058688209856e-02 -1.3705865568833098e-01 0.0000000000000000e+00  2.9012694941089670e-02 -1.3084701910653171e-01 0.0000000000000000e+00  -5.6676266029271942e-02 8.0318491384749252e-02 0.0000000000000000e+00  2.5350300259327330e-02 -9.5518076478867314e-02 0.0