<?xml version="1.0"?>
<VTKFile type="UnstructuredGrid"  version="0.1"  >
<UnstructuredGrid>
<Piece  NumberOfPoints="1419" NumberOfCells="2698">
<Points>
<DataArray  type="Float64"  NumberOfComponents="3"  format="ascii">-1.312219684573442e-09 -7.061645785997022e-07 0  6.930904158792813e-09 0.4099992909076092 0  2.50000000769907 -1.031772218532752e-06 0  2.500000007699076 0.4099989682277907 0  0.6000000076105889 0.1899989313197076 0  0.6000000123049685 0.2099989331373392 0  0.25 0.2 0  0.150000002658073 0.1999992986427613 0  0.2489897948556636 0.21 0  0.2489897948556636 0.19 0  0.6000000108438787 0.1999989272297922 0  6.839191016851125e-09 0.3807135768233442 0  6.577670508659175e-09 0.3514278630854679 0  6.136994111700268e-09 0.3221421496124259 0  5.515432838741382e-09 0.2928564362282043 0  4.743510660972383e-09 0.2635707227975118 0  3.850315215951766e-09 0.2342850092297875 0  2.870861559418792e-09 0.2049992953891156 0  1.885689543254547e-09 0.1757135812988162 0  9.659351930484142e-10 0.1464278669338858 0  1.576038040938557e-10 0.1171421523458691 0  -4.75787011260695e-10 0.08785643761806074 0  -9.445165220675855e-10 0.05857072287183124 0  -1.223348817440619e-09 0.02928500824127789 0  0.03015443619761038 -7.062997606645556e-07 0  0.06140001815210969 -7.067893527178969e-07 0  0.0937762385183139 -7.078987888320512e-07 0  0.1273239927310875 -7.100913130579231e-07 0  0.1620856820486039 -7.141984750726054e-07 0  0.1981052382607746 -7.222583168080942e-07 0  0.2354281780184675 -7.37311089422937e-07 0  0.2741016508534597 -7.612975459058253e-07 0  0.3141745451331214 -7.944795638204852e-07 0  0.3556974861097928 -8.35576903723461e-07 0  0.3987229488801596 -8.798203497331678e-07 0  0.4433053018861308 -9.223325823189294e-07 0  0.4895008744115681 -9.59839112885186e-07 0  0.5373680616183312 -9.892409761312191e-07 0  0.5869673369975714 -1.009291845654828e-06 0  0.6383613719789778 -1.021657800118726e-06 0  0.6916151193407816 -1.027801362505315e-06 0  0.7467958658501926 -1.030498825735103e-06 0  0.8039733532035164 -1.031588012937931e-06 0  0.8632198210980043 -1.031941024747295e-06 0  0.924610140049274 -1.031994599613812e-06 0  0.9882218885854676 -1.031950764056449e-06 0  1.054135453134843 -1.031897544655055e-06 0  1.122434108167995 -1.031853173469519e-06 0  1.193204184798116 -1.03182098377851e-06 0  1.266535097554903 -1.031800431323277e-06 0  1.342519523732131 -1.031788327135927e-06 0  1.421253456195671 -1.031781154639658e-06 0  1.50283639680148 -1.031776944437714e-06 0  1.587371447455906 -1.031774676206786e-06 0  1.674965426475421 -1.031773475368146e-06 0  1.765729009524111 -1.031772836152206e-06 0  1.859776916578904 -1.031772521876015e-06 0  1.957227985186018 -1.031772357073813e-06 0  2.05820533756896 -1.031772282045347e-06 0  2.162836598888999 -1.031772243754008e-06 0  2.271253964989925 -1.03177222752814e-06 0  2.383594454502492 -1.031772220584e-06 0  2.50000000769907 0.102498968227544 0  2.500000007699072 0.2049989682272603 0  2.500000007699076 0.3074989682275076 0  2.383594454502733 0.4099989682277927 0  2.271253964990398 0.4099989682277997 0  2.162836598889696 0.4099989682278167 0  2.058205337569903 0.4099989682278533 0  1.957227985187254 0.4099989682279275 0  1.859776916580574 0.4099989682281004 0  1.765729009526436 0.4099989682284136 0  1.674965426478939 0.4099989682290795 0  1.587371447461504 0.4099989682302839 0  1.502836396810898 0.4099989682325787 0  1.421253456212211 0.4099989682370151 0  1.342519523760711 0.4099989682445543 0  1.266535097604109 0.4099989682577431 0  1.193204184884232 0.4099989682825958 0  1.12243410831638 0.4099989683272031 0  1.054135453379678 0.4099989684018662 0  0.9882218889937013 0.409998968549954 0  0.9246101407080339 0.4099989688222484 0  0.863219822151529 0.4099989693442375 0  0.803973354853456 0.4099989703888883 0  0.7467958683876154 0.4099989724841103 0  0.6916151231308159 0.409998976559559 0  0.6383613774964615 0.409998984457898 0  0.5869673447582834 0.409998997928941 0  0.5373680720305615 0.4099990185460243 0  0.4895008877340685 0.4099990475167598 0  0.4433053180341733 0.4099990831981161 0  0.3987229673350762 0.409999123150563 0  0.3556975059690809 0.4099991642262349 0  0.3141745653008911 0.4099992024529071 0  0.2741016701764645 0.409999234165456 0  0.2354281957035148 0.4099992569623953 0  0.1981052538631978 0.4099992719535982 0  0.1620856955116718 0.4099992807513762 0  0.1273240042993379 0.4099992856577447 0  0.0937762485872736 0.409999288484047 0  0.06140002717882729 0.4099992899533874 0  0.03015444461813154 0.4099992907168877 0  0.2497468076502589 0.2050254481002335 0  0.2497468076502614 0.1949745518997913 0  0.2469965157761912 0.1829313588435953 0  0.2439893628159004 0.1762311674423906 0  0.2400332041427428 0.1700437954781303 0  0.2352133872495142 0.1645027001863789 0  0.2296338923897202 0.1597274081501148 0  0.2234150890160332 0.155820934738975 0  0.2166911387876891 0.1528675531696477 0  0.2096071011937987 0.1509309763846519 0  0.2023158041522066 0.1500529810952255 0  0.1949745468257182 0.1502525084666504 0  0.1877417062752538 0.1515252528367311 0  0.1807733205675455 0.153843756274458 0  0.1742197225947672 0.1571579998398682 0  0.1682222967452838 0.1613964833506107 0  0.1629104288585561 0.1664677673282608 0  0.158398714791069 0.1722624460712542 0  0.1547844882941745 0.1786555076045463 0  0.1521457210693427 0.1855090308254588 0  0.150539340751784 0.1926751608032967 0  0.1505393422649611 0.2073234366405962 0  0.1521457241104001 0.2144895671145954 0  0.1547844928317889 0.2213430911954669 0  0.1583987208502203 0.2277361540602452 0  0.1629104364174143 0.2335308346926084 0  0.1682223058359748 0.2386021213962555 0  0.1742197331885569 0.2428406085739579 0  0.1807733326928123 0.2461548572276283 0  0.187741719934881 0.2484733676609877 0  0.1949745620320301 0.2497461216750617 0  0.2023158208910879 0.2499456618000925 0  0.2096071195021417 0.2490676843270125 0  0.2166911586224397 0.247131131016004 0  0.2234151103746234 0.244177782301767 0  0.2296339151851464 0.2402713535672888 0  0.2352134112914403 0.2354961249562388 0  0.2400332290075174 0.229955118848697 0  0.2439893873435084 0.2237678887778727 0  0.2469965368251165 0.2170679428320337 0  0.2564581130653826 0.2099996573101785 0  0.2639264190731 0.2099995399584222 0  0.2713947236112971 0.209999463534395 0  0.2788630263956149 0.2099994055474514 0  0.2863313287153855 0.2099993584553655 0  0.2937996322639694 0.2099993174656093 0  0.3012679342639878 0.2099992799349538 0  0.3087362352875787 0.2099992551525821 0  0.31620453934196 0.2099992310927037 0  0.3236728398282738 0.2099992086876657 0  0.3311411437370625 0.2099991886735983 0  0.3386094438034194 0.2099991702845662 0  0.3460777468936295 0.2099991527016027 0  0.3535460473552293 0.2099991335368995 0  0.3610143480210828 0.2099991237006185 0  0.3684826507691905 0.2099991120708886 0  0.3759509509554528 0.2099990999771265 0  0.3834192537697433 0.2099990885181678 0  0.3908875540046309 0.2099990774437676 0  0.3983558568990136 0.2099990669968017 0  0.4058241570415845 0.20999905645002 0  0.4132924596900925 0.2099990453823961 0  0.4207607599846586 0.2099990321193352 0  0.4282290608472243 0.2099990261491064 0  0.4356973634464271 0.2099990183372623 0  0.4431656641570417 0.2099990097069869 0  0.4506339669212698 0.2099990009988443 0  0.458102267514208 0.2099989924554606 0  0.4655705704520777 0.2099989840695346 0  0.4730388708816077 0.2099989758709706 0  0.4805071740275938 0.2099989678128207 0  0.4879754745423168 0.2099989599185903 0  0.4954437779492193 0.2099989522000536 0  0.5029120781922244 0.2099989451720454 0  0.5103803817689712 0.2099989386201119 0  0.5178486823407241 0.2099989326636868 0  0.5253169870147764 0.2099989267714921 0  0.5327852874740377 0.2099989212522721 0  0.5402535920389329 0.2099989165814917 0  0.5477218927174199 0.2099989130143464 0  0.5551901979195314 0.2099989081310915 0  0.5626584993488848 0.209998900471165 0  0.5701268007893679 0.2099989091268869 0  0.5775951066084727 0.2099989147151751 0  0.5850634077711309 0.2099989190640572 0  0.5925317116141939 0.2099989261533105 0  0.6000000131271314 0.2049989294002236 0  0.6000000078840803 0.1949989294532285 0  0.5925317049239952 0.1899989227434226 0  0.5850634046466687 0.1899989144543664 0  0.5775951002151872 0.189998908317959 0  0.5701267999781897 0.1899989026420631 0  0.5626584960917684 0.1899988942721972 0  0.5551901914892421 0.1899989007487224 0  0.5477218909600513 0.1899989038004463 0  0.540253585586837 0.1899989068508094 0  0.532785285167614 0.1899989108046078 0  0.5253169795343356 0.1899989156943741 0  0.517848678261389 0.1899989213866876 0  0.5103803729298108 0.1899989277113945 0  0.502912072033241 0.1899989345511529 0  0.4954437670100335 0.1899989419018909 0  0.487975465950961 0.1899989496755058 0  0.480507161042711 0.1899989578354949 0  0.4730388594419021 0.1899989662844197 0  0.4655705547335813 0.1899989750721334 0  0.4581022534361856 0.1899989840823627 0  0.4506339490888275 0.1899989932673282 0  0.4431656476829767 0.1899990026236188 0  0.4356973432551746 0.1899990120960187 0  0.4282290413467958 0.1899990211695345 0  0.4207607373186624 0.1899990281795233 0  0.4132924337371421 0.1899990422316815 0  0.4058241321632395 0.1899990545850999 0  0.3983558284151125 0.189999065869089 0  0.3908875266323512 0.1899990773541138 0  0.3834192227909118 0.1899990890435906 0  0.3759509208833011 0.1899991010382839 0  0.3684826170642793 0.1899991134948006 0  0.3610143154764091 0.189999125117205 0  0.3535460116242426 0.1899991353910688 0  0.3460777073314819 0.1899991549456633 0  0.3386094056845127 0.1899991734648833 0  0.3311411013221485 0.1899991921149402 0  0.3236728001853801 0.1899992122940396 0  0.3162044961041283 0.1899992345545051 0  0.3087361950885463 0.1899992581762867 0  0.3012678909415591 0.1899992827733288 0  0.2937995879299279 0.1899993198495319 0  0.2863312866328552 0.1899993607212512 0  0.2788629843335911 0.1899994076893669 0  0.2713946823062374 0.1899994653489798 0  0.2639263819911519 0.1899995420316086 0  0.2564580827635301 0.18999965911673
[...]
<PointData  Vectors="f_30-0"> 
<DataArray  type="Float64"  Name="f_30-0"  NumberOfComponents="3" format="ascii">0.0000000000000000e+00 0.0000000000000000e+00 0.0000000000000000e+00  0.0000000000000000e+00 0.0000000000000000e+00 0.0000000000000000e+00  0.0000000000000000e+00 0.0000000000000000e+00 0.0000000000000000e+00  0.0000000000000000e+00 0.0000000000000000e+00 0.0000000000000000e+00  6.5953726216453311e-03 -3.4444785915732093e-02 0.0000000000000000e+00  5.5202542046412385e-03 -3.0425878797103734e-02 0.0000000000000000e+00  0.0000000000000000e+00 0.0000000000000000e+00 0.0000000000000000e+00  0.0000000000000000e+00 0.0000000000000000e+00 0.0000000000000000e+00  0.0000000000000000e+00 0.0000000000000000e+00 0.0000000000000000e+00  0.0000000000000000e+00 0.0000000000000000e+00 0.0000000000000000e+00  2.3031276119528547e-02 -9.0000123205991586e-02 0.0000000000000000e+00  0.0000000000000000e+00 0.0000000000000000e+00 0.0000000000000000e+00  0.0000000000000000e+00 0.0000000000000000e+00 0.0000000000000000e+00  0.0000000000000000e+00 0.0000000000000000e+00 0.0000000000000000e+00  0.0000000000000000e+00 0.0000000000000000e+00 0.0000000000000000e+00  0.0000000000000000e+00 0.0000000000000000e+00 0.0000000000000000e+00  0.0000000000000000e+00 0.0000000000000000e+00 0.0000000000000000e+00  0.0000000000000000e+00 0.0000000000000000e+00 0.0000000000000000e+00  0.0000000000000000e+00 0.0000000000000000e+00 0.0000000000000000e+00  0.0000000000000000e+00 0.0000000000000000e+00 0.0000000000000000e+00  0.0000000000000000e+00 0.0000000000000000e+00 0.0000000000000000e+00  0.0000000000000000e+00 0.0000000000000000e+00 0.0000000000000000e+00  0.0000000000000000e+00 0.0000000000000000e+00 0.0000000000000000e+00  0.0000000000000000e+00 0.0000000000000000e+00 0.0000000000000000e+00  0.0000000000000000e+00 0.0000000000000000e+00 0.0000000000000000e+00  0.0000000000000000e+00 0.0000000000000000e+00 0.0000000000000000e+00  0.0000000000000000e+00 0.0000000000000000e+00 0.0000000000000000e+00  0.0000000000000000e+00 0.0000000000000000e+00 0.0000000000000000e+00  0.0000000000000000e+00 0.0000000000000000e+00 0.0000000000000000e+00  0.0000000000000000e+00 0.0000000000000000e+00 0.0000000000000000e+00  0.0000000000000000e+00 0.0000000000000000e+00 0.0000000000000000e+00  0.0000000000000000e+00 0.0000000000000000e+00 0.0000000000000000e+00  0.0000000000000000e+00 0.0000000000000000e+00 0.0000000000000000e+00  0.0000000000000000e+00 0.0000000000000000e+00 0.0000000000000000e+00  0.0000000000000000e+00 0.0000000000000000e+00 0.0000000000000000e+00  0.0000000000000000e+00 0.0000000000000000e+00 0.0000000000000000e+00  0.0000000000000000e+00 0.0000000000000000e+00 0.0000000000000000e+00  0.0000000000000000e+00 0.0000000000000000e+00 0.0000000000000000e+00  0.0000000000000000e+00 0.0000000000000000e+00 0.0000000000000000e+00  0.0000000000000000e+00 0.0000000000000000e+00 0.0000000000000000e+00  0.0000000000000000e+00 0.0000000000000000e+00 0.0000000000000000e+00  0.0000000000000000e+00 0.0000000000000000e+00 0.0000000000000000e+00  0.0000000000000000e+00 0.0000000000000000e+00 0.0000000000000000e+00  0.0000000000000000e+00 0.0000000000000000e+00 0.0000000000000000e+00  0.0000000000000000e+00 0.0000000000000000e+00 0.0000000000000000e+00  0.0000000000000000e+00 0.0000000000000000e+00 0.0000000000000000e+00  0.0000000000000000e+00 0.0000000000000000e+00 0.0000000000000000e+00  0.0000000000000000e+00 0.0000000000000000e+00 0.0000000000000000e+00  0.0000000000000000e+00 0.0000000000000000e+00 0.0000000000000000e+00  0.0000000000000000e+00 0.0000000000000000e+00 0.0000000000000000e+00  0.0000000000000000e+00 0.0000000000000000e+00 0.0000000000000000e+00  0.0000000000000000e+00 0.0000000000000000e+00 0.0000000000000000e+00  0.0000000000000000e+00 0.0000000000000000e+00 0.0000000000000000e+00  0.0000000000000000e+00 0.0000000000000000e+00 0.0000000000000000e+00  0.0000000000000000e+00 0.0000000000000000e+00 0.0000000000000000e+00  0.0000000000000000e+00 0.0000000000000000e+00 0.0000000000000000e+00  0.0000000000000000e+00 0.0000000000000000e+00 0.0000000000000000e+00  0.0000000000000000e+00 0.0000000000000000e+00 0.0000000000000000e+00  0.0000000000000000e+00 0.0000000000000000e+00 0.0000000000000000e+00  0.0000000000000000e+00 0.0000000000000000e+00 0.0000000000000000e+00  0.0000000000000000e+00 0.0000000000000000e+00 0.0000000000000000e+00  0.0000000000000000e+00 0.0000000000000000e+00 0.0000000000000000e+00  3.7240943789586948e-09 1.3357372701850844e-09 0.0000000000000000e+00  -1.5613727821532246e-10 1.6961241907643821e-09 0.0000000000000000e+00  -4.1379606247112716e-09 1.5800747319497638e-09 0.0000000000000000e+00  0.0000000000000000e+00 0.0000000000000000e+00 0.0000000000000000e+00  0.0000000000000000e+00 0.0000000000000000e+00 0.0000000000000000e+00  0.0000000000000000e+00 0.0000000000000000e+00 0.0000000000000000e+00  0.0000000000000000e+00 0.0000000000000000e+00 0.0000000000000000e+00  0.0000000000000000e+00 0.0000000000000000e+00 0.0000000000000000e+00  0.0000000000000000e+00 0.0000000000000000e+00 0.0000000000000000e+00  0.0000000000000000e+00 0.0000000000000000e+00 0.0000000000000000e+00  0.0000000000000000e+00 0.0000000000000000e+00 0.0000000000000000e+00  0.0000000000000000e+00 0.0000000000000000e+00 0.0000000000000000e+00  0.0000000000000000e+00 0.0000000000000000e+00 0.0000000000000000e+00  0.0000000000000000e+00 0.0000000000000000e+00 0.0000000000000000e+00  0.0000000000000000e+00 0.0000000000000000e+00 0.0000000000000000e+00  0.0000000000000000e+00 0.0000000000000000e+00 0.0000000000000000e+00  0.0000000000000000e+00 0.0000000000000000e+00 0.0000000000000000e+00  0.0000000000000000e+00 0.0000000000000000e+00 0.0000000000000000e+00  0.0000000000000000e+00 0.0000000000000000e+00 0.0000000000000000e+00  0.0000000000000000e+00 0.0000000000000000e+00 0.0000000000000000e+00  0.0000000000000000e+00 0.0000000000000000e+00 0.0000000000000000e+00  0.0000000000000000e+00 0.0000000000000000e+00 0.0000000000000000e+00  0.0000000000000000e+00 0.0000000000000000e+00 0.0000000000000000e+00  0.0000000000000000e+00 0.0000000000000000e+00 0.0000000000000000e+00  0.0000000000000000e+00 0.0000000000000000e+00 0.0000000000000000e+00  0.0000000000000000e+00 0.0000000000000000e+00 0.0000000000000000e+00  0.0000000000000000e+00 0.0000000000000000e+00 0.0000000000000000e+00  0.0000000000000000e+00 0.0000000000000000e+00 0.0000000000000000e+00  0.0000000000000000e+00 0.0000000000000000e+00 0.0000000000000000e+00  0.0000000000000000e+00 0.0000000000000000e+00 0.0000000000000000e+00  0.0000000000000000e+00 0.0000000000000000e+00 0.0000000000000000e+00  0.0000000000000000e+00 0.0000000000000000e+00 0.0000000000000000e+00  0.0000000000000000e+00 0.0000000000000000e+00 0.0000000000000000e+00  0.0000000000000000e+00 0.0000000000000000e+00 0.0000000000000000e+00  0.0000000000000000e+00 0.0000000000000000e+00 0.0000000000000000e+00  0.0000000000000000e+00 0.0000000000000000e+00 0.0000000000000000e+00  0.0000000000000000e+00 0.0000000000000000e+00 0.0000000000000000e+00  0.0000000000000000e+00 0.0000000000000000e+00 0.0000000000000000e+00  0.0000000000000000e+00 0.0000000000000000e+00 0.0000000000000000e+00  0.0000000000000000e+00 0.0000000000000000e+00 0.0000000000000000e+00  0.0000000000000000e+00 0.0000000000000000e+00 0.0000000000000000e+00  0.0000000000000000e+00 0.0000000000000000e+00 0.0000000000000000e+00  0.0000000000000000e+00 0.0000000000000000e+00 0.0000000000000000e+00  0.0000000000000000e+00 0.0000000000000000e+00 0.0000000000000000e+00  0.0000000000000000e+00 0.0000000000000000e+00 0.0000000000000000e+00  0.0000000000000000e+00 0.0000000000000000e+00 0.0000000000000000e+00  0.0000000000000000e+00 0.0000000000000000e+00 0.0000000000000000e+00  0.0000000000000000e+00 0.0000000000000000e+00 0.0000000000000000e+00  0.0000000000000000e+00 0.0000000000000000e+00 0.0000000000000000e+00  0.0000000000000000e+00 0.0000000000000000e+00 0.0000000000000000e+00  0.0000000000000000e+00 0.0000000000000000e+00 0.0000000000000000e+00  0.0000000000000000e+00 0.0000000000000000e+00 0.0000000000000000e+00  0.0000000000000000e+00 0.0000000000000000e+00 0.0000000000000000e+00  0.0000000000000000e+00 0.0000000000000000e+00 0.0000000000000000e+00  0.0000000000000000e+00 0.0000000000000000e+00 0.0000000000000000e+00  0.0000000000000000e+00 0.0000000000000000e+00 0.0000000000000000e+00  0.0000000000000000e+00 0.0000000000000000e+00 0.0000000000000000e+00  0.0000000000000000e+00 0.0000000000000000e+00 0.0000000000000000e+00  0.0000000000000000e+00 0.0000000000000000e+00 0.0000000000000000e+00  0.0000000000000000e+00 0.0000000000000000e+00 0.0000000000000000e+00  0.0000000000000000e+00 0.0000000000000000e+00 0.0000000000000000e+00  0.0000000000000000e+00 0.0000000000000000e+00 0.0000000000000000e+00  0.0000000000000000e+00 0.0000000000000000e+00 0.0000000000000000e+00  0.0000000000000000e+00 0.0000000000000000e+00 0.0000000000000000e+00  0.0000000000000000e+00 0.0000000000000000e+00 0.0000000000000000e+00  0.0000000000000000e+00 0.0000000000000000e+00 0.0000000000000000e+00  0.0000000000000000e+00 0.0000000000000000e+00 0.0000000000000000e+00  0.0000000000000000e+00 0.0000000000000000e+00 0.0000000000000000e+00  0.0000000000000000e+00 0.0000000000000000e+00 0.0000000000000000e+00  0.0000000000000000e+00 0.0000000000000000e+00 0.0000000000000000e+00  0.0000000000000000e+00 0.0000000000000000e+00 0.0000000000000000e+00  0.0000000000000000e+00 0.0000000000000000e+00 0.0000000000000000e+00  0.0000000000000000e+00 0.0000000000000000e+00 0.0000000000000000e+00  0.0000000000000000e+00 0.0000000000000000e+00 0.0000000000000000e+00  0.0000000000000000e+00 0.0000000000000000e+00 0.0000000000000000e+00  0.0000000000000000e+00 0.0000000000000000e+00 0.0000000000000000e+00  0.0000000000000000e+00 0.0000000000000000e+00 0.0000000000000000e+00  0.0000000000000000e+00 0.0000000000000000e+00 0.0000000000000000e+00  0.0000000000000000e+00 0.0000000000000000e+00 0.0000000000000000e+00  0.0000000000000000e+00 0.0000000000000000e+00 0.0000000000000000e+00  0.0000000000000000e+00 0.0000000000000000e+00 0.0000000000000000e+00  5.8976900470896848e-02 1.5281678416481770e-01 0.0000000000000000e+00  4.6198342745617113e-02 1.0044872944019646e-01 0.0000000000000000e+00  3.5759052978894958e-02 3.9731698039094016e-02 0.0000000000000000e+00  2.3757368794803922e-02 -2.1902005207830345e-02 0.0000000000000000e+00  1.5183753198255762e-02 -4.4955296068856364e-02 0.0000000000000000e+00  2.0567834295713787e-02 -8.8463257294012915e-02 0.0000000000000000e+00  1.9486895225446728e-02 -1.0455666260206085e-01 0.0000000000000000e+00  -3.8056497161813702e-03 -1.1385441566125666e-01 0.0000000000000000e+00  2.5515644344180723e-02 -1.0704882564753389e-01 0.0000000000000000e+00  -4.1131330953770020e-03 -1.1351616866439825e-01 0.0000000000000000e+00  2.3781330254549822e-02 -1.1378425956051837e-01 0.0000000000000000e+00  -4.0952705253077910e-03 -1.1266719425758653e-01 0.0000000000000000e+00  2.5021881319973648e-02 -1.1703055895132079e-01 0.0000000000000000e+00  1.3438643453598605e-03 -1.0997985958263946e-01 0.0000000000000000e+00  -1.6064895450550213e-03 -1.0433644340844789e-01 0.0000000000000000e+00  8.9005791848750394e-03 -9.2654501902832379e-02 0.0000000000000000e+00  -3.2470211562561900e-03 -9.6414243525484861e-02 0.0000000000000000e+00  9.4216108638570609e-03 -9.0113404903151534e-02 0.0000000000000000e+00  -5.5378627362349369e-03 -9.0836153535128542e-02 0.0000000000000000e+00  1.1628792722984390e-02 -9.0057847561658771e-02 0.0000000000000000e+00  -9.0690670457427968e-03 -8.9811392436692256e-02 0.0000000000000000e+00  1.6221286190745584e-02 -9.2319688960681656e-02 0.0000000000000000e+00  -5.1407309147520897e-03 -9.0786295089207658e-02 0.0000000000000000e+00  -9.1420877697890573e-03 -9.4119659425231247e-02 0.0000000000000000e+00  3.1226189600539293e-03 -9.7526274765337942e-02 0.0000000000000000e+00  -6.5468111699086371e-03 -9.9583593116577315e-02 0.0000000000000000e+00  2.9236256215034884e-03 -1.0481076462888730e-01 0.0000000000000000e+00  -1.2346379275199165e-02 -1.1129260888099587e-01 0.0000000000000000e+00  9.7317475193711197e-03 -1.1392293976735932e-01 0.0000000000000000e+00  -1.8113156336098210e-02 -1.1761796714848377e-01 0.0000000000000000e+00  1.1698174309061213e-02 -1.2515171395175839e-01 0.0000000000000000e+00  -1.7050255035542188e-02 -1.2675116706982498e-01 0.0000000000000000e+00  8.3131009085305862e-03 -1.4580080695425024e-01 0.0000000000000000e+00  -1.7589377867647100e-02 -1.4927247204376090e-01 0.0000000000000000e+00  9.5897304738083739e-03 -1.4807096432078110e-01 0.0000000000000000e+00  -2.2051865538338201e-02 -1.4550726928720828e-01 0.0000000000000000e+00  1.3926294381450694e-02 -1.5525645578491154e-01 0.0000000000000000e+00  -2.6157480378936452e-02 -1.6967409587913915e-01 0.0000000000000000e+00  1.8290534059877642e-02 -1.7964266702377027e-01 0.0000000000000000e+00  -2.2249067657153426e-02 -1.6791770505017584e-01 0.0000000000000000e+00  1.8111262846362806e-02 -1.7811933096571519e-01 0.0000000000000000e+00  2.2072158975777996e-03 -1.7166066663664442e-01 0.0000000000000000e+00  -2.0969243342344870e-02 -1.6324931570663923e-01 0.0000000000000000e+00  2.2757214787856587e-02 -1.3890478585702040e-01 0.0000000000000000e+00  -6.0372513930667679e-03 -1.5159201630931687e-01 0.0000000000000000e+00  4.3796677324238024e-02 -1.1639097930399288e-01 0.0000000000000000e+00  4.4790028843529645e-02 -8.5298255183052785e-02 0.0000000000000000e+00  -1.9855402208193981e-02 -7.1320055769227633e-02 0.0000000000000000e+00  -6.3257231587084042e-03 -9.6890919432302214e-02 0.0000000000000000e+00  2.8540753634745800e-02 -1.3321246109089133e-01 0.0000000000000000e+00  -4.7506877550566118e-03 -1.4204326518961349e-01 0.0000000000000000e+00  2.9214836457307911e-02 -1.6687483719457896e-01 0.0000000000000000e+00  9.1912170403545389e-03 -1.5879531227519331e-01 0.0000000000000000e+00  -1.8849841035855682e-02 -1.7073412128415932e-01 0.0000000000000000e+00  2.6082091493217784e-02 -1.5687910658850107e-01 0.0000000000000000e+00  -1.9343291758833158e-02 -1.5827090328586188e-01 0.0000000000000000e+00  2.2873683287437881e-02 -1.5674512403372154e-01 0.0000000000000000e+00  -1.8408925986043961e-02 -1.5485321485586889e-01 0.0000000000000000e+00  1.8490354971300409e-02 -1.4591945087233243e-01 0.0000000000000000e+00  -1.8019937717558082e-02 -1.3976785086203439e-01 0.0000000000000000e+00  1.7019803697572791e-02 -1.2909310986290701e-01 0.0000000000000000e+00  -1.8310151333537871e-02 -1.2503917236254916e-01 0.0000000000000000e+00  1.3778241690069040e-02 -1.2046019441785950e-01 0.0000000000000000e+00  -1.6602267193417050e-02 -1.1781791501423793e-01 0.0000000000000000e+00  1.1782025988606034e-02 -1.1160465540397439e-01 0.0000000000000000e+00  -1.5854851561458574e-02 -1.0654998954002740e-01 0.0000000000000000e+00  1.0837533274729545e-02 -9.8853348088682638e-02 0.0000000000000000e+00  -1.5023416380220712e-02 -9.6331051578094073e-02 0.0000000000000000e+00  1.0059323350742848e-02 -9.4681337608177471e-02 0.0000000000000000e+00  -1.3440555596300674e-02 -9.1939290961045098e-02 0.0000000000000000e+00  1.0369957098904314e-02 -9.4470752225364454e-02 0.0000000000000000e+00  -4.8605067148410844e-03 -9.0845249959616445e-02 0.0000000000000000e+00  -1.2230886851255967e-02 -9.2152610706816046e-02 0.0000000000000000e+00  2.5046179436176113e-03 -8.6928770723296286e-02 0.0000000000000000e+00  -1.1012443724872695e-02 -9.2790770431139744e-02 0.0000000000000000e+00  3.9253991216717382e-03 -9.7024212825981518e-02 0.0000000000000000e+00  -1.0357933129807642e-02 -9.8948502324425397e-02 0.0000000000000000e+00  4.1031376872496961e-03 -1.0061882649193066e-01 0.0000000000000000e+00  -9.6882704659400822e-03 -9.7689468063983306e-02 0.0000000000000000e+00  5.2422994816561583e-03 -1.0453655275517199e-01 0.0000000000000000e+00  1.2357156274357586e-04 -1.0884779618166786e-01 0.0000000000000000e+00  -2.4240870306989796e-02 -1.1765868057242147e-01 0.0000000000000000e+00  6.3479770396621697e-03 -1.1392310408088024e-01 0.0000000000000000e+00  -2.5753351110180771e-02 -1.1720590498955286e-01 0.0000000000000000e+00  6.0103384670794260e-03 -1.1666919511724475e-01 0.0000000000000000e+00  -2.7598929492957558e-02 -1.1217014136042723e-01 0.0000000000000000e+00  4.6118214213814752e-03 -1.1236432010856420e-01 0.0000000000000000e+00  -2.0613535139504410e-02 -1.0161482579450701e-01 0.0000000000000000e+00  -2.5189159316419012e-02 -8.8807895518421540e-02 0.0000000000000000e+00  -1.8945232292943367e-02 -4.8304564731784967e-02 0.0000000000000000e+00  -2.6380676135668520e-02 -2.4535544739760610e-02 0.0000000000000000e+00  -3.6304734110701509e-02 3.6205620666915982e-02 0.0000000000000000e+00  -4.8631102095712406e-02 1.0053066623326889e-01 0.0000000000000000e+00  -6.2980755830252866e-02 1.5492766256401511e-01 0.0000000000000000e+00  -1.7328917448282376e-03 -5.8237915265909712e-02 0.0000000000000000e+00  -3.8289678908138649e-03 8.3654101723426813e-02 0.0000000000000000e+00  -1.5567239209728361e-03 1.1712431126725797e-01 0.0000000000000000e+00  5.3694207464382859e-03 1.3476175194227782e-01 0.0000000000000000e+00  -4.2521837096919020e-04 -5.4593870756068112e-03 0.0000000000000000e+00  2.8813787951798052e-04 1.3093607852778139e-01 0.0000000000000000e+00  1.1711061826535543e-03 4.7402342837453065e-02 0.0000000000000000e+00  2.4321895760984113e-04 1.2137090544690342e-01 0.0000000000000000e+00  2.9771160545474435e-03 8.9612231860111732e-02 0.0000000000000000e+00  5.1354668436573469e-04 9.1940584376176832e-02 0.0000000000000000e+00  -1.3292694343319299e-03 1.1229940234529094e-01 0.0000000000000000e+00  2.5186165723290240e-03 8.0813159071658175e-02 0.0000000000000000e+00  -2.6993293840840780e-04 9.3140173533705670e-02 0.0000000000000000e+00  -2.3844818686368768e-03 8.6881139803197102e-02 0.0000000000000000e+00  -7.3546443980808156e-06 7.6716694573573566e-02 0.0000000000000000e+00  -6.1212947370680381e-04 8.5727240104039967e-02 0.0000000000000000e+00  4.3836318910931050e-04 1.0271610336529370e-01 0.0000000000000000e+00  -1.3000129371487533e-03 7.4135800094007900e-02 0.0000000000000000e+00  1.2056202746570148e-04 7.8955436880015245e-02 0.0000000000000000e+00  -6.4282041994010385e-04 7.1040527836756504e-02 0.0000000000000000e+00  -2.2543806140120702e-03 7.4315482901753049e-02 0.0000000000000000e+00  1.0132491366984990e-03 5.9182709046324632e-02 0.0000000000000000e+00  -4.2102566097343235e-04 6.8944517338037747e-02 0.0000000000000000e+00  -1.1960039429578357e-03 1.1409491833719934e-01 0.0000000000000000e+00  8.4686961035248013e-04 6.6001525659096283e-02 0.0000000000000000e+00  8.9214055460009999e-03 8.8426783274656431e-02 0.0000000000000000e+00  -2.3406934779230296e-02 -3.7290647179273995e-02 0.0000000000000000e+00  -3.5394506562235650e-03 8.6728418061813320e-02 0.0000000000000000e+00  -5.4290549176375432e-03 9.5133329961995430e-02 0.0000000000000000e+00  1.5730982506872784e-02 3.0023495321932037e-02 0.0000000000000000e+00  -4.2241496190940572e-03 6.4676891370675615e-02 0.0000000000000000e+00  -2.8839736560852961e-03 6.6914636949194667e-02 0.0000000000000000e+00  -1.9602960298133617e-03 7.9655115899105525e-02 0.0000000000000000e+00  -4.2297098882212352e-03 5.5001112250174851e-02 0.0000000000000000e+00  -8.5429348045221144e-04 6.0752328814381397e-02 0.0000000000000000e+00  -1.4785871633391512e-03 6.1672049197921998e-02 0.0000000000000000e+00  -1.3206088083440475e-03 5.3771144486362825e-02 0.0000000000000000e+00  -1.2258490832286507e-03 5.8070061003928752e-02 0.0000000000000000e+00  -2.6183551517618394e-03 7.6621400636517914e-02 0.0000000000000000e+00  8.5703373336930820e-04 5.6367821840869164e-02 0.0000000000000000e+00  5.4258151072734723e-04 5.1713157574381954e-02 0.0000000000000000e+00  -1.4431044339526529e-02 -7.7888792525493869e-02 0.0000000000000000e+00  1.2570724688909829e-02 -7.5417549667192191e-02 0.0000000000000000e+00  -3.7197252767421328e-02 5.8368596344570416e-02 0.0000000000000000e+00  2.1414531333641906e-02 -3.7999634490985049e-02