<?xml version="1.0"?>
<VTKFile type="UnstructuredGrid"  version="0.1"  >
<UnstructuredGrid>
<Piece  NumberOfPoints="1419" NumberOfCells="2698">
<Points>
<DataArray  type="Float64"  NumberOfComponents="3"  format="ascii">1.87097064436271e-07 -2.773083681523366e-06 0  2.175015213033971e-07 0.4099972143024136 0  2.500000445066078 -4.250243458024949e-06 0  2.500000445066124 0.4099957497565781 0  0.6000004960121798 0.1899956065146735 0  0.6000005471588533 0.2099955977012135 0  0.25 0.2 0  0.1500001998057794 0.1999972482163913 0  0.2489897948556636 0.21 0  0.2489897948556636 0.19 0  0.600000536333997 0.1999955848825346 0  2.171092248566027e-07 0.3807115009016642 0  2.159992852354115e-07 0.3514257890222345 0  2.141651777926617e-07 0.3221400783032357 0  2.116579613484337e-07 0.2928543679680191 0  2.08629864533527e-07 0.2635686574217608 0  2.052133127416142e-07 0.234282946266962 0  2.015754640292343e-07 0.2049972339067682 0  1.979950572736443e-07 0.175711520447777 0  1.947326919698866e-07 0.1464258057816072 0  1.919361358661172e-07 0.11714009013655 0  1.898065926453909e-07 0.08785437388126457 0  1.882707570563962e-07 0.0585686575498221 0  1.873784166197025e-07 0.02928294173453705 0  0.03015462440440536 -2.773683035677612e-06 0  0.06140020571656169 -2.775852897588048e-06 0  0.09377642502960265 -2.780767039660735e-06 0  0.1273241779236119 -2.790476459067681e-06 0  0.162085866002251 -2.808674233440317e-06 0  0.198105421898491 -2.844471561494982e-06 0  0.2354283637581022 -2.911677618555291e-06 0  0.274101842607482 -3.019743225509319e-06 0  0.3141747478896622 -3.170788879900039e-06 0  0.3556977068237818 -3.360536472975212e-06 0  0.3987231941132707 -3.566569520348351e-06 0  0.443305578094475 -3.764209015032045e-06 0  0.4895011859457269 -3.936155029175896e-06 0  0.5373684086266147 -4.067578855944093e-06 0  0.58696771483388 -4.154685256800231e-06 0  0.63836177344567 -4.207357137194669e-06 0  0.6916155360164137 -4.233234922595226e-06 0  0.7467962914376302 -4.244613758051543e-06 0  0.8039737839524143 -4.249255774537255e-06 0  0.8632202547251622 -4.250803385381554e-06 0  0.924610575294417 -4.251080377101012e-06 0  0.9882223247041604 -4.250931716318293e-06 0  1.054135889788855 -4.250732457232282e-06 0  1.12243454511495 -4.250560806665736e-06 0  1.193204621927439 -4.250435184152449e-06 0  1.266535534789799 -4.250354578660749e-06 0  1.342519961025094 -4.250306955584004e-06 0  1.42125389352207 -4.2502787000156e-06 0  1.502836834147161 -4.250262101429653e-06 0  1.587371884811866 -4.250253154998764e-06 0  1.674965863836789 -4.250248417338528e-06 0  1.76572944688835 -4.250245895178599e-06 0  1.859777353944552 -4.250244655055013e-06 0  1.957228422552405 -4.250244004731882e-06 0  2.058205774935684 -4.250243708657684e-06 0  2.162837036255895 -4.250243557553063e-06 0  2.271254402356893 -4.250243493522582e-06 0  2.383594891869491 -4.250243466119595e-06 0  2.500000445066083 0.1024957497563083 0  2.500000445066102 0.204995749756034 0  2.500000445066119 0.3074957497562912 0  2.383594891869792 0.409995749756586 0  2.271254402357487 0.4099957497566145 0  2.162837036256862 0.4099957497566812 0  2.058205774937232 0.4099957497568253 0  1.957228422554916 0.4099957497571184 0  1.859777353949009 0.4099957497578005 0  1.765729446896272 0.409995749759037 0  1.674965863851747 0.4099957497616646 0  1.58737188483968 0.4099957497664188 0  1.502836834199232 0.4099957497754788 0  1.42125389361999 0.4099957497930017 0  1.342519961200945 0.4099957498228013 0  1.266535535099569 0.4099957498749897 0  1.193204622477188 0.4099957499735784 0  1.122434546069717 0.40999575015108 0  1.054135891371 0.4099957504493361 0  0.9882223273492285 0.4099957510450841 0  0.9246105795573645 0.4099957521475461 0  0.8632202615630821 0.4099957542776136 0  0.8039737946469593 0.4099957585776558 0  0.746796307739657 0.4099957672763463 0  0.6916155597881593 0.4099957843649513 0  0.6383618063597252 0.4099958179343678 0  0.5869677583329355 0.4099958761800897 0  0.5373684619226174 0.4099959671379758 0  0.4895012474733634 0.4099960981185718 0  0.4433056467626195 0.4099962626980208 0  0.3987232681587404 0.4099964488585318 0  0.3556977836343607 0.4099966401533 0  0.3141748245589828 0.4099968165155559 0  0.2741019150392885 0.4099969609591459 0  0.2354284297899554 0.4099970635669641 0  0.1981054799806751 0.4099971304689582 0  0.1620859159479667 0.4099971694982236 0  0.1273242207275876 0.4099971911765197 0  0.09377646221706261 0.4099972036390434 0  0.06140023903961885 0.4099972101063249 0  0.03015465546320275 0.4099972134641535 0  0.2497468076502589 0.2050254481002335 0  0.2497468076502614 0.1949745518997913 0  0.2469965820229676 0.1829303953950557 0  0.2439894602395953 0.1762298480683765 0  0.2400333219353745 0.1700422609116359 0  0.2352135191406318 0.1645010262611976 0  0.2296340351224145 0.1597256334883441 0  0.2234152402352229 0.1558190870206558 0  0.216691296803849 0.1528656519590679 0  0.2096072646840069 0.1509290363714251 0  0.2023159723966926 0.1500510110526432 0  0.1949747190136553 0.1502505168755561 0  0.1877418819618374 0.1515232448911563 0  0.1807734992961163 0.1538417365081088 0  0.1742199041309354 0.1571559711083539 0  0.1682224808146781 0.1613944481382893 0  0.1629106153540967 0.1664657271648128 0  0.1583989035471677 0.1722604023135095 0  0.154784679258077 0.1786534611448941 0  0.1521459141314368 0.1855069824620471 0  0.1505395359034216 0.1926731111126116 0  0.1505395413733131 0.2073213860166188 0  0.1521459251256418 0.2144875168478792 0  0.1547846956552781 0.2213410419444643 0  0.1583989254318698 0.2277341066258242 0  0.1629106426334766 0.2335287900726873 0  0.1682225135838249 0.2386000810646174 0  0.1742199422667794 0.2428385741783225 0  0.1807735429012874 0.2461528310717196 0  0.1877419309663863 0.2484713532915885 0  0.1949747734584636 0.2497441234047407 0  0.2023160322137357 0.2499436847577882 0  0.2096073299995877 0.2490657367047051 0  0.2166913673676787 0.2471292224430415 0  0.2234153159609285 0.2441759281730599 0  0.2296341158928749 0.2402695714238831 0  0.2352136041715215 0.2354944444460659 0  0.2400334099803379 0.2299535775859933 0  0.2439895476828536 0.2237665611867744 0  0.2469966580924706 0.2170669723749924 0  0.2564582391326498 0.2099987372090334 0  0.2639265850773733 0.2099983163848778 0  0.2713949373788112 0.2099980430125968 0  0.2788632520104236 0.2099978237767502 0  0.2863315681962727 0.2099976367579814 0  0.2937998697671401 0.2099974760398637 0  0.3012681764044746 0.2099973347751652 0  0.3087364776715272 0.2099972043217893 0  0.3162047825542187 0.2099970837898333 0  0.3236730823271282 0.2099969724992594 0  0.3311413893462601 0.2099968694095492 0  0.338609688252095 0.2099967737458015 0  0.3460779956027552 0.2099966803348425 0  0.3535462952070496 0.209996581849308 0  0.3610145937965287 0.209996520827933 0  0.3684828976115362 0.2099964534936615 0  0.3759511899346512 0.2099963840286154 0  0.3834194908330203 0.2099963169564268 0  0.3908877800486028 0.2099962515916139 0  0.3983560794961421 0.2099961870154402 0  0.4058243654997511 0.2099961257138236 0  0.4132926643609549 0.2099960537699981 0  0.4207609460906466 0.209995969598851 0  0.4282292507957574 0.2099959330459624 0  0.4356975683037735 0.2099958677372318 0  0.4431658798706221 0.2099958291523105 0  0.4506342071644979 0.2099957873196399 0  0.4581025244178979 0.2099957602336639 0  0.4655708689980779 0.209995691008217 0  0.4730391919774015 0.2099956431924571 0  0.4805075355099088 0.2099956601640539 0  0.4879758491764586 0.2099956526081602 0  0.4954441815752338 0.2099955883148381 0  0.5029124908223718 0.2099955559854578 0  0.5103808219801635 0.2099955842375432 0  0.5178491309650539 0.209995559356671 0  0.5253174602480957 0.2099955245724993 0  0.5327857785084632 0.2099955067346158 0  0.5402541210517646 0.2099954954910704 0  0.5477224446786746 0.2099954798019397 0  0.5551907813553975 0.2099954914788535 0  0.5626591006580741 0.2099954768476901 0  0.5701273892899399 0.2099955154117712 0  0.5775956928050096 0.2099955455559138 0  0.5850639839243581 0.2099955451664177 0  0.5925322776624011 0.2099955588497612 0  0.6000005514951428 0.2049955843455697 0  0.6000005114035539 0.1949955958086506 0  0.592532195150966 0.1899955844321634 0  0.5850638992203432 0.1899955532041821 0  0.5775955838845115 0.1899955246796852 0  0.5701272803295889 0.189995497595849 0  0.5626589675073548 0.1899954600722944 0  0.5551906470376635 0.1899954674766248 0  0.5477223397092356 0.1899954609537369 0  0.5402540070882594 0.1899954597841816 0  0.5327856968078736 0.1899954692538509 0  0.5253173653601656 0.1899954855054441 0  0.5178490585196583 0.1899955026115867 0  0.5103807399414187 0.1899955166360225 0  0.5029124308441514 0.1899955299095547 0  0.4954440944548832 0.1899955495591396 0  0.4879757862060743 0.1899955741213694 0  0.4805074665368254 0.1899955964155687 0  0.4730391534200887 0.1899956190463129 0  0.4655708073958973 0.1899956504091164 0  0.4581024948459304 0.1899956935749157 0  0.4506341716547133 0.1899957421860641 0  0.4431658658151567 0.1899957915924864 0  0.4356975369430771 0.189995845444797 0  0.428229230431179 0.189995901683904 0  0.4207609137455683 0.1899959465510963 0  0.4132926039807695 0.1899960304097643 0  0.4058243043592111 0.1899961060303797 0  0.3983559945960503 0.189996175706762 0  0.3908876940152411 0.189996244887375 0  0.3834193841650628 0.1899963135129379 0  0.3759510824465874 0.1899963827458244 0  0.3684827735718642 0.1899964532649018 0  0.3610144730400718 0.1899965217594154 0  0.3535461639304397 0.1899965863824476 0  0.3460778544125184 0.189996683303196 0  0.3386095519397723 0.1899967781385466 0  0.3311412431887406 0.1899968752442605 0  0.323672942963792 0.1899969779285321 0  0.316204638734321 0.1899970886299512 0  0.3087363397766206 0.1899972075927603 0  0.3012680385990906 0.1899973381245157 0  0.2937997372357977 0.1899974812565553 0  0.2863314279430199 0.1899976401958073 0  0.2788631221703489 0.1899978167053679 0  0.2713947828181799 0.1899980508840035 0  0.2639264544590068 0.1899983604450008 0  0.2564581230595366 0.189998746038137 0
[...]
<PointData  Vectors="f_30-0"> 
<DataArray  type="Float64"  Name="f_30-0"  NumberOfComponents="3" format="ascii">0.0000000000000000e+00 0.0000000000000000e+00 0.0000000000000000e+00  0.0000000000000000e+00 0.0000000000000000e+00 0.0000000000000000e+00  0.0000000000000000e+00 0.0000000000000000e+00 0.0000000000000000e+00  0.0000000000000000e+00 0.0000000000000000e+00 0.0000000000000000e+00  8.2081515465997429e-02 -1.6564700083850692e-01 0.0000000000000000e+00  1.8610532954308009e-01 -1.4520011032803276e-01 0.0000000000000000e+00  0.0000000000000000e+00 0.0000000000000000e+00 0.0000000000000000e+00  0.0000000000000000e+00 0.0000000000000000e+00 0.0000000000000000e+00  0.0000000000000000e+00 0.0000000000000000e+00 0.0000000000000000e+00  0.0000000000000000e+00 0.0000000000000000e+00 0.0000000000000000e+00  3.2135127366917265e-01 -3.2207298350022356e-01 0.0000000000000000e+00  0.0000000000000000e+00 0.0000000000000000e+00 0.0000000000000000e+00  0.0000000000000000e+00 0.0000000000000000e+00 0.0000000000000000e+00  0.0000000000000000e+00 0.0000000000000000e+00 0.0000000000000000e+00  0.0000000000000000e+00 0.0000000000000000e+00 0.0000000000000000e+00  0.0000000000000000e+00 0.0000000000000000e+00 0.0000000000000000e+00  0.0000000000000000e+00 0.0000000000000000e+00 0.0000000000000000e+00  0.0000000000000000e+00 0.0000000000000000e+00 0.0000000000000000e+00  0.0000000000000000e+00 0.0000000000000000e+00 0.0000000000000000e+00  0.0000000000000000e+00 0.0000000000000000e+00 0.0000000000000000e+00  0.0000000000000000e+00 0.0000000000000000e+00 0.0000000000000000e+00  0.0000000000000000e+00 0.0000000000000000e+00 0.0000000000000000e+00  0.0000000000000000e+00 0.0000000000000000e+00 0.0000000000000000e+00  0.0000000000000000e+00 0.0000000000000000e+00 0.0000000000000000e+00  0.0000000000000000e+00 0.0000000000000000e+00 0.0000000000000000e+00  0.0000000000000000e+00 0.0000000000000000e+00 0.0000000000000000e+00  0.0000000000000000e+00 0.0000000000000000e+00 0.0000000000000000e+00  0.0000000000000000e+00 0.0000000000000000e+00 0.0000000000000000e+00  0.0000000000000000e+00 0.0000000000000000e+00 0.0000000000000000e+00  0.0000000000000000e+00 0.0000000000000000e+00 0.0000000000000000e+00  0.0000000000000000e+00 0.0000000000000000e+00 0.0000000000000000e+00  0.0000000000000000e+00 0.0000000000000000e+00 0.0000000000000000e+00  0.0000000000000000e+00 0.0000000000000000e+00 0.0000000000000000e+00  0.0000000000000000e+00 0.0000000000000000e+00 0.0000000000000000e+00  0.0000000000000000e+00 0.0000000000000000e+00 0.0000000000000000e+00  0.0000000000000000e+00 0.0000000000000000e+00 0.0000000000000000e+00  0.0000000000000000e+00 0.0000000000000000e+00 0.0000000000000000e+00  0.0000000000000000e+00 0.0000000000000000e+00 0.0000000000000000e+00  0.0000000000000000e+00 0.0000000000000000e+00 0.0000000000000000e+00  0.0000000000000000e+00 0.0000000000000000e+00 0.0000000000000000e+00  0.0000000000000000e+00 0.0000000000000000e+00 0.0000000000000000e+00  0.0000000000000000e+00 0.0000000000000000e+00 0.0000000000000000e+00  0.0000000000000000e+00 0.0000000000000000e+00 0.0000000000000000e+00  0.0000000000000000e+00 0.0000000000000000e+00 0.0000000000000000e+00  0.0000000000000000e+00 0.0000000000000000e+00 0.0000000000000000e+00  0.0000000000000000e+00 0.0000000000000000e+00 0.0000000000000000e+00  0.0000000000000000e+00 0.0000000000000000e+00 0.0000000000000000e+00  0.0000000000000000e+00 0.0000000000000000e+00 0.0000000000000000e+00  0.0000000000000000e+00 0.0000000000000000e+00 0.0000000000000000e+00  0.0000000000000000e+00 0.0000000000000000e+00 0.0000000000000000e+00  0.0000000000000000e+00 0.0000000000000000e+00 0.0000000000000000e+00  0.0000000000000000e+00 0.0000000000000000e+00 0.0000000000000000e+00  0.0000000000000000e+00 0.0000000000000000e+00 0.0000000000000000e+00  0.0000000000000000e+00 0.0000000000000000e+00 0.0000000000000000e+00  0.0000000000000000e+00 0.0000000000000000e+00 0.0000000000000000e+00  0.0000000000000000e+00 0.0000000000000000e+00 0.0000000000000000e+00  0.0000000000000000e+00 0.0000000000000000e+00 0.0000000000000000e+00  0.0000000000000000e+00 0.0000000000000000e+00 0.0000000000000000e+00  0.0000000000000000e+00 0.0000000000000000e+00 0.0000000000000000e+00  0.0000000000000000e+00 0.0000000000000000e+00 0.0000000000000000e+00  0.0000000000000000e+00 0.0000000000000000e+00 0.0000000000000000e+00  0.0000000000000000e+00 0.0000000000000000e+00 0.0000000000000000e+00  1.1334309561928208e-08 4.0405779469307595e-09 0.0000000000000000e+00  -2.3157467983308487e-10 5.9730068763813487e-09 0.0000000000000000e+00  -1.1669298220252181e-08 4.5519251345749991e-09 0.0000000000000000e+00  0.0000000000000000e+00 0.0000000000000000e+00 0.0000000000000000e+00  0.0000000000000000e+00 0.0000000000000000e+00 0.0000000000000000e+00  0.0000000000000000e+00 0.0000000000000000e+00 0.0000000000000000e+00  0.0000000000000000e+00 0.0000000000000000e+00 0.0000000000000000e+00  0.0000000000000000e+00 0.0000000000000000e+00 0.0000000000000000e+00  0.0000000000000000e+00 0.0000000000000000e+00 0.0000000000000000e+00  0.0000000000000000e+00 0.0000000000000000e+00 0.0000000000000000e+00  0.0000000000000000e+00 0.0000000000000000e+00 0.0000000000000000e+00  0.0000000000000000e+00 0.0000000000000000e+00 0.0000000000000000e+00  0.0000000000000000e+00 0.0000000000000000e+00 0.0000000000000000e+00  0.0000000000000000e+00 0.0000000000000000e+00 0.0000000000000000e+00  0.0000000000000000e+00 0.0000000000000000e+00 0.0000000000000000e+00  0.0000000000000000e+00 0.0000000000000000e+00 0.0000000000000000e+00  0.0000000000000000e+00 0.0000000000000000e+00 0.0000000000000000e+00  0.0000000000000000e+00 0.0000000000000000e+00 0.0000000000000000e+00  0.0000000000000000e+00 0.0000000000000000e+00 0.0000000000000000e+00  0.0000000000000000e+00 0.0000000000000000e+00 0.0000000000000000e+00  0.0000000000000000e+00 0.0000000000000000e+00 0.0000000000000000e+00  0.0000000000000000e+00 0.0000000000000000e+00 0.0000000000000000e+00  0.0000000000000000e+00 0.0000000000000000e+00 0.0000000000000000e+00  0.0000000000000000e+00 0.0000000000000000e+00 0.0000000000000000e+00  0.0000000000000000e+00 0.0000000000000000e+00 0.0000000000000000e+00  0.0000000000000000e+00 0.0000000000000000e+00 0.0000000000000000e+00  0.0000000000000000e+00 0.0000000000000000e+00 0.0000000000000000e+00  0.0000000000000000e+00 0.0000000000000000e+00 0.0000000000000000e+00  0.0000000000000000e+00 0.0000000000000000e+00 0.0000000000000000e+00  0.0000000000000000e+00 0.0000000000000000e+00 0.0000000000000000e+00  0.0000000000000000e+00 0.0000000000000000e+00 0.0000000000000000e+00  0.0000000000000000e+00 0.0000000000000000e+00 0.0000000000000000e+00  0.0000000000000000e+00 0.0000000000000000e+00 0.0000000000000000e+00  0.0000000000000000e+00 0.0000000000000000e+00 0.0000000000000000e+00  0.0000000000000000e+00 0.0000000000000000e+00 0.0000000000000000e+00  0.0000000000000000e+00 0.0000000000000000e+00 0.0000000000000000e+00  0.0000000000000000e+00 0.0000000000000000e+00 0.0000000000000000e+00  0.0000000000000000e+00 0.0000000000000000e+00 0.0000000000000000e+00  0.0000000000000000e+00 0.0000000000000000e+00 0.0000000000000000e+00  0.0000000000000000e+00 0.0000000000000000e+00 0.0000000000000000e+00  0.0000000000000000e+00 0.0000000000000000e+00 0.0000000000000000e+00  0.0000000000000000e+00 0.0000000000000000e+00 0.0000000000000000e+00  0.0000000000000000e+00 0.0000000000000000e+00 0.0000000000000000e+00  0.0000000000000000e+00 0.0000000000000000e+00 0.0000000000000000e+00  0.0000000000000000e+00 0.0000000000000000e+00 0.0000000000000000e+00  0.0000000000000000e+00 0.0000000000000000e+00 0.0000000000000000e+00  0.0000000000000000e+00 0.0000000000000000e+00 0.0000000000000000e+00  0.0000000000000000e+00 0.0000000000000000e+00 0.0000000000000000e+00  0.0000000000000000e+00 0.0000000000000000e+00 0.0000000000000000e+00  0.0000000000000000e+00 0.0000000000000000e+00 0.0000000000000000e+00  0.0000000000000000e+00 0.0000000000000000e+00 0.0000000000000000e+00  0.0000000000000000e+00 0.0000000000000000e+00 0.0000000000000000e+00  0.0000000000000000e+00 0.0000000000000000e+00 0.0000000000000000e+00  0.0000000000000000e+00 0.0000000000000000e+00 0.0000000000000000e+00  0.0000000000000000e+00 0.0000000000000000e+00 0.0000000000000000e+00  0.0000000000000000e+00 0.0000000000000000e+00 0.0000000000000000e+00  0.0000000000000000e+00 0.0000000000000000e+00 0.0000000000000000e+00  0.0000000000000000e+00 0.0000000000000000e+00 0.0000000000000000e+00  0.0000000000000000e+00 0.0000000000000000e+00 0.0000000000000000e+00  0.0000000000000000e+00 0.0000000000000000e+00 0.0000000000000000e+00  0.0000000000000000e+00 0.0000000000000000e+00 0.0000000000000000e+00  0.0000000000000000e+00 0.0000000000000000e+00 0.0000000000000000e+00  0.0000000000000000e+00 0.0000000000000000e+00 0.0000000000000000e+00  0.0000000000000000e+00 0.0000000000000000e+00 0.0000000000000000e+00  0.0000000000000000e+00 0.0000000000000000e+00 0.0000000000000000e+00  0.0000000000000000e+00 0.0000000000000000e+00 0.0000000000000000e+00  0.0000000000000000e+00 0.0000000000000000e+00 0.0000000000000000e+00  0.0000000000000000e+00 0.0000000000000000e+00 0.0000000000000000e+00  0.0000000000000000e+00 0.0000000000000000e+00 0.0000000000000000e+00  0.0000000000000000e+00 0.0000000000000000e+00 0.0000000000000000e+00  0.0000000000000000e+00 0.0000000000000000e+00 0.0000000000000000e+00  0.0000000000000000e+00 0.0000000000000000e+00 0.0000000000000000e+00  0.0000000000000000e+00 0.0000000000000000e+00 0.0000000000000000e+00  0.0000000000000000e+00 0.0000000000000000e+00 0.0000000000000000e+00  0.0000000000000000e+00 0.0000000000000000e+00 0.0000000000000000e+00  0.0000000000000000e+00 0.0000000000000000e+00 0.0000000000000000e+00  0.0000000000000000e+00 0.0000000000000000e+00 0.0000000000000000e+00  0.0000000000000000e+00 0.0000000000000000e+00 0.0000000000000000e+00  0.0000000000000000e+00 0.0000000000000000e+00 0.0000000000000000e+00  0.0000000000000000e+00 0.0000000000000000e+00 0.0000000000000000e+00  0.0000000000000000e+00 0.0000000000000000e+00 0.0000000000000000e+00  6.4471230344097061e-02 8.8843794036793178e-01 0.0000000000000000e+00  3.2743873743753781e-02 8.5433394397380813e-01 0.0000000000000000e+00  3.2421561637807889e-01 6.9277744597891766e-01 0.0000000000000000e+00  1.5436575963116866e-01 4.3109789188555886e-01 0.0000000000000000e+00  1.9807308739773619e-01 2.7313067656654960e-01 0.0000000000000000e+00  8.1651094446997877e-02 1.3562556530193864e-01 0.0000000000000000e+00  1.0077929108643151e-01 4.1788957651757018e-02 0.0000000000000000e+00  3.5387307031820532e-02 -6.4829606461482489e-02 0.0000000000000000e+00  5.7747168763629154e-02 -1.5101308500330429e-01 0.0000000000000000e+00  4.4712905026472741e-06 -1.9541376053825424e-01 0.0000000000000000e+00  4.7471094452731948e-02 -2.7140323835505642e-01 0.0000000000000000e+00  -1.4682211441147626e-02 -2.7782553379110564e-01 0.0000000000000000e+00  6.5887676223383110e-02 -3.4838970088977950e-01 0.0000000000000000e+00  1.8723793191065076e-02 -3.8564831795589005e-01 0.0000000000000000e+00  3.3418738373744827e-03 -3.5610635413503133e-01 0.0000000000000000e+00  3.6198356091297561e-02 -3.2427249991489115e-01 0.0000000000000000e+00  -1.9300003635488030e-02 -3.5573217090055997e-01 0.0000000000000000e+00  1.3907081202416580e-02 -3.5912694384377220e-01 0.0000000000000000e+00  -5.9210871164214258e-02 -3.6330655444105081e-01 0.0000000000000000e+00  -1.9358450829573728e-02 -4.2735296096853853e-01 0.0000000000000000e+00  -1.4722269731082246e-01 -3.6173452971966513e-01 0.0000000000000000e+00  -4.1906838362913708e-02 -5.0002679200714562e-01 0.0000000000000000e+00  -2.1605659598765384e-01 -5.3729309523803648e-01 0.0000000000000000e+00  -2.3544989780726150e-01 -4.8996374325177455e-01 0.0000000000000000e+00  -2.2395784799050769e-01 -1.0177315700417380e+00 0.0000000000000000e+00  -2.0352959889167713e-01 -7.5053245468718055e-01 0.0000000000000000e+00  -1.9073336798791649e-01 -8.4660548927900769e-01 0.0000000000000000e+00  -2.8179333476661794e-01 -4.2716160866013925e-01 0.0000000000000000e+00  1.7331723726032131e-01 -1.0414386612736390e+00 0.0000000000000000e+00  -2.0946490222583833e-01 -1.4012746281789976e+00 0.0000000000000000e+00  1.2393927625820739e-01 -5.4985351864054044e-01 0.0000000000000000e+00  -5.4187649007262854e-02 -2.4793630387109949e-01 0.0000000000000000e+00  3.0717580250278098e-01 -9.0074537477511507e-01 0.0000000000000000e+00  -1.7683762386384846e-01 -1.1777602793287383e+00 0.0000000000000000e+00  1.4092207343853794e-01 -3.0981804156548465e-01 0.0000000000000000e+00  -6.4135245764070448e-03 -5.2202655544261434e-01 0.0000000000000000e+00  8.5769667417761403e-02 -8.1039228021362353e-01 0.0000000000000000e+00  -8.4254094269253677e-02 -8.5160759386479357e-01 0.0000000000000000e+00  2.5672235537802990e-01 -8.4908498168693147e-01 0.0000000000000000e+00  1.6374010851232784e-01 -1.0564956093830966e+00 0.0000000000000000e+00  3.1365565315350935e-01 -5.8658928344260775e-01 0.0000000000000000e+00  2.9118202266201704e-01 -5.9164415877560850e-01 0.0000000000000000e+00  1.8549381074594579e-01 -5.3874779712320953e-01 0.0000000000000000e+00  2.7925268433585554e-01 -2.7768288063714869e-01 0.0000000000000000e+00  2.7804289586620290e-01 -6.4048245879851951e-01 0.0000000000000000e+00  4.8974493582166501e-01 -8.4439465692137472e-01 0.0000000000000000e+00  4.8213482721528100e-01 -4.7570653394254947e-01 0.0000000000000000e+00  1.1074439520744729e-01 -2.6005592385670118e-01 0.0000000000000000e+00  1.3751445428130910e-01 -2.9807570895797153e-01 0.0000000000000000e+00  2.4514073399485412e-01 -3.8951920702114157e-01 0.0000000000000000e+00  9.2915306644913764e-02 -4.3636657583814897e-01 0.0000000000000000e+00  2.0658622926788078e-01 -5.3899577050184211e-01 0.0000000000000000e+00  1.1928470152832088e-01 -5.3703677153400409e-01 0.0000000000000000e+00  7.0154766342487559e-02 -6.2523049270942832e-01 0.0000000000000000e+00  2.3151248806830294e-01 -6.9785530786927497e-01 0.0000000000000000e+00  -3.5306174705931254e-02 -7.2560698588537142e-01 0.0000000000000000e+00  1.0927590960465003e-01 -7.0828332246751846e-01 0.0000000000000000e+00  -1.1890298837931985e-01 -6.6618637021168547e-01 0.0000000000000000e+00  9.0620550609929906e-02 -5.9654392462108630e-01 0.0000000000000000e+00  1.9995564237888886e-02 -6.0474601297325437e-01 0.0000000000000000e+00  1.6614531631195345e-01 -6.8583580370900432e-01 0.0000000000000000e+00  -1.3550498128528046e-01 -6.7604637863156136e-01 0.0000000000000000e+00  6.9794599403641355e-02 -6.2000985312154167e-01 0.0000000000000000e+00  2.0558946164776853e-02 -6.7680810797212754e-01 0.0000000000000000e+00  1.8052875693700468e-01 -8.1334588988158707e-01 0.0000000000000000e+00  -2.1141561750881707e-01 -8.0837237464650502e-01 0.0000000000000000e+00  -3.9054656715454467e-02 -7.0443223685155820e-01 0.0000000000000000e+00  -1.5298146488346540e-01 -6.7389410577730546e-01 0.0000000000000000e+00  3.3205276856572104e-02 -6.8267972479640060e-01 0.0000000000000000e+00  -2.0224464848326587e-01 -6.5594761749238162e-01 0.0000000000000000e+00  -6.0945097186402113e-02 -5.8675841910890048e-01 0.0000000000000000e+00  -1.0274081948887848e-01 -5.2223822723116753e-01 0.0000000000000000e+00  -1.5530494961197927e-01 -5.1015228882550945e-01 0.0000000000000000e+00  -6.1083671319031391e-02 -4.2343253929989266e-01 0.0000000000000000e+00  -1.2027875761669564e-01 -4.0904617938216203e-01 0.0000000000000000e+00  -3.0962396811341969e-02 -3.8799791192260996e-01 0.0000000000000000e+00  -9.7117582427100432e-02 -3.7788517563655982e-01 0.0000000000000000e+00  -2.7521929548575647e-02 -3.6281329449302696e-01 0.0000000000000000e+00  -8.1950595935158604e-02 -3.4644667844016719e-01 0.0000000000000000e+00  -1.4069636777903299e-02 -3.5065837069759009e-01 0.0000000000000000e+00  -3.5948542230651345e-02 -3.4196922560233256e-01 0.0000000000000000e+00  -1.1086695827028843e-01 -3.4604636710907627e-01 0.0000000000000000e+00  -3.2093259120226460e-02 -2.9097826580919162e-01 0.0000000000000000e+00  -1.1154580827259712e-01 -2.6385607940474021e-01 0.0000000000000000e+00  -4.2754730866765941e-02 -2.0948624077834960e-01 0.0000000000000000e+00  -8.3434615163026041e-02 -1.6242566583796442e-01 0.0000000000000000e+00  -3.1733738809801411e-02 -8.3080704066913327e-02 0.0000000000000000e+00  -5.5661182941096093e-02 6.6814561662188474e-03 0.0000000000000000e+00  2.5590734220714350e-02 1.3984461761867281e-01 0.0000000000000000e+00  1.8720965139275045e-02 2.7062356112618435e-01 0.0000000000000000e+00  1.7180800028098653e-01 2.2570384921491701e-01 0.0000000000000000e+00  -1.3508902699281489e-01 7.0898311085114718e-01 0.0000000000000000e+00  -3.5258500270117393e-01 1.5315023459761037e+00 0.0000000000000000e+00  -2.3021899177204319e-01 8.4748993494454272e-01 0.0000000000000000e+00  7.7419154332508677e-03 -6.4554490656526531e-01 0.0000000000000000e+00  -3.7253527302508029e-03 3.3049056609681848e-01 0.0000000000000000e+00  4.3249991878763433e-03 3.5821820043491792e-01 0.0000000000000000e+00  -1.2122607191972369e-02 6.0146030136481377e-01 0.0000000000000000e+00  -1.5044364155164142e-01 -4.5068657343588803e-01 0.0000000000000000e+00  4.2175899018258835e-02 6.0644429841936121e-01 0.0000000000000000e+00  4.0765959338906248e-02 -1.9868956558639536e-01 0.0000000000000000e+00  1.2121045828405375e-01 5.3311148765798799e-01 0.0000000000000000e+00  4.8779279572435117e-03 9.2304665326149254e-02 0.0000000000000000e+00  4.8061399584574708e-04 1.8458006931417845e-01 0.0000000000000000e+00  -2.1130317199788193e-01 5.6074016494152412e-01 0.0000000000000000e+00  2.8579142613125211e-03 2.8066785901893754e-01 0.0000000000000000e+00  -2.6300071817683485e-01 6.6676572821621394e-01 0.0000000000000000e+00  -2.9355134979208845e-03 2.3128597341710860e-01 0.0000000000000000e+00  -6.5433829375932517e-03 2.9099578867465309e-01 0.0000000000000000e+00  1.7757647334126814e-01 6.0587674497884669e-01 0.0000000000000000e+00  2.4567573892584957e-01 5.1476619736372964e-01 0.0000000000000000e+00  -2.6918319354644664e-02 3.1851597755062167e-01 0.0000000000000000e+00  -1.2525404936715059e-01 5.8685408643919557e-01 0.0000000000000000e+00  5.7302604410533855e-04 3.5221704241962043e-01 0.0000000000000000e+00  1.5530766381512006e-02 5.3854928936630175e-01 0.0000000000000000e+00  1.8489195804250794e-02 3.3895172305037569e-01 0.0000000000000000e+00  9.3786836590039344e-04 2.2638610777293899e-01 0.0000000000000000e+00  -2.2309345022229733e-02 3.7225002133583912e-01 0.0000000000000000e+00  -1.6400216331800342e-03 -6.9413536559532838e-03 0.0000000000000000e+00  -1.8543636234719232e-02 2.5628666919667026e-01 0.0000000000000000e+00  -1.9208867571140778e-01 -6.4162011071467473e-01 0.0000000000000000e+00  2.5286938916258456e-02 4.1471298006017776e-01 0.0000000000000000e+00  -4.5042833134865186e-02 4.8489674385197068e-01 0.0000000000000000e+00  -1.1669381816732352e-03 -2.0582572833243687e-01 0.0000000000000000e+00  2.5945709064972160e-02 1.0842099919734771e-01 0.0000000000000000e+00  -1.8104217991517443e-02 3.1313976041880542e-01 0.0000000000000000e+00  -3.6727857321523241e-02 2.9359964188588145e-01 0.0000000000000000e+00  -4.7562983223073153e-03 2.0442444561307849e-01 0.0000000000000000e+00  1.1010810921521388e-03 5.7599813549521883e-01 0.0000000000000000e+00  2.3822707745620446e-02 1.5035625342558673e-01 0.0000000000000000e+00  1.3492461677514840e-02 2.1837876375547241e-01 0.0000000000000000e+00  4.4615481995674680e-02 3.9045250855901875e-01 0.0000000000000000e+00  1.0013552182379929e-02 5.0046209850754830e-01 0.0000000000000000e+00  4.4507552707018325e-02 2.5932664132426331e-01 0.0000000000000000e+00  3.2841158218125588e-03 4.1005702319730875e-01 0.0000000000000000e+00  -2.8627430782583316e-02 -5.2366642415746945e-01 0.0000000000000000e+00  3.4504979757418691e-01 -3.9224381609037556e-01 0.0000000000000000e+00  -2.4432455432250685e-01 2.9161740759116728e-01 0.0000000000000000e+00  -1.3632052792687623e-03 -6.0692576321848024e-01 0.0000000000