<?xml version="1.0"?>
<VTKFile type="UnstructuredGrid"  version="0.1"  >
<UnstructuredGrid>
<Piece  NumberOfPoints="1419" NumberOfCells="2698">
<Points>
<DataArray  type="Float64"  NumberOfComponents="3"  format="ascii">1.368440676889547e-08 -1.371864363379655e-06 0  2.987045623906156e-08 0.4099986221101478 0  2.500000052192857 -2.018608244423587e-06 0  2.50000005219287 0.4099979813917724 0  0.6000000571356255 0.1899979158554884 0  0.6000000697298424 0.2099979172604083 0  0.25 0.2 0  0.1500000212855037 0.1999986377401061 0  0.2489897948556636 0.21 0  0.2489897948556636 0.19 0  0.6000000662835875 0.1999979084573603 0  2.968481688228493e-08 0.3807129082312959 0  2.915637440898932e-08 0.3514271950522934 0  2.826970320208091e-08 0.3221414824090275 0  2.702739289499782e-08 0.2928557699472246 0  2.549345579304833e-08 0.263570057394176 0  2.37275602256232e-08 0.234284344567257 0  2.180225685972647e-08 0.2049986311925219 0  1.987365508538888e-08 0.1757129173159051 0  1.80810869879305e-08 0.1464272028858244 0  1.651259997693804e-08 0.1171414880052352 0  1.528956731459962e-08 0.08785577284065454 0  1.438836547766437e-08 0.05857005763627209 0  1.385432405119776e-08 0.02928434266150455 0  0.03015445110824649 -1.372134770936814e-06 0  0.06140003278496805 -1.37311472117312e-06 0  0.09377625267048087 -1.375338104874523e-06 0  0.1273240062150237 -1.379737658325592e-06 0  0.162085694735015 -1.387989488289178e-06 0  0.198105250157517 -1.404207236421857e-06 0  0.2354281894078808 -1.434548749661244e-06 0  0.2741016623210624 -1.482995330232868e-06 0  0.3141745574752821 -1.550122883107174e-06 0  0.3556975004637539 -1.633307939996535e-06 0  0.3987229662689423 -1.722627560736038e-06 0  0.4433053232605589 -1.807717650312372e-06 0  0.4895009004193961 -1.881753383507277e-06 0  0.5373680923930079 -1.938717738894775e-06 0  0.5869673720624768 -1.976794612766964e-06 0  0.638361410469062 -1.999931183289927e-06 0  0.6916151601601939 -2.011298501979653e-06 0  0.7467959081230889 -2.016266100255511e-06 0  0.8039733963747031 -2.018267947690162e-06 0  0.8632198648046494 -2.018916821515447e-06 0  0.9246101840775819 -2.019015679950735e-06 0  0.9882219327981945 -2.018935535374317e-06 0  1.05413549746455 -2.018838045273542e-06 0  1.122434152564028 -2.018756703911159e-06 0  1.193204229236136 -2.018697680342496e-06 0  1.266535142017523 -2.018659989729843e-06 0  1.342519568208404 -2.01863779008502e-06 0  1.421253500679836 -2.018624634874537e-06 0  1.502836441290209 -2.018616912677175e-06 0  1.587371491947071 -2.018612752312405e-06 0  1.674965470967869 -2.018610549728196e-06 0  1.76572905401724 -2.018609377271179e-06 0  1.859776961072368 -2.018608800821066e-06 0  1.957228029679657 -2.018608498538108e-06 0  2.058205382062679 -2.018608360919553e-06 0  2.162836643382759 -2.018608290684881e-06 0  2.271254009483703 -2.018608260923094e-06 0  2.383594498996276 -2.018608248186024e-06 0  2.500000052192857 0.1024979813915192 0  2.500000052192864 0.2049979813912381 0  2.50000005219287 0.3074979813914882 0  2.383594498996531 0.4099979813917761 0  2.271254009484204 0.4099979813917892 0  2.16283664338352 0.4099979813918203 0  2.058205382063766 0.4099979813918873 0  1.957228029681196 0.4099979813920235 0  1.859776961074699 0.4099979813923406 0  1.765729054020893 0.4099979813929152 0  1.674965470974102 0.4099979813941364 0  1.587371491957943 0.4099979813963458 0  1.502836441309753 0.4099979814005548 0  1.421253500715697 0.4099979814086925 0  1.342519568271946 0.4099979814225217 0  1.266535142128587 0.409997981446715 0  1.19320422943233 0.4099979814923084 0  1.122434152903907 0.409997981574152 0  1.054135498027025 0.4099979817111621 0  0.9882219337378484 0.4099979819830044 0  0.9246101855945843 0.4099979824830479 0  0.8632198672335344 0.4099979834423358 0  0.8039734001774573 0.4099979853646828 0  0.7467959139561625 0.4099979892278924 0  0.6916151688119146 0.4099979967692691 0  0.6383614228854341 0.4099980114860206 0  0.5869673892139483 0.409998036857873 0  0.5373681148464402 0.4099980762296601 0  0.4895009284070986 0.4099981325545679 0  0.4433053564785923 0.4099982030912667 0  0.3987230036427507 0.4099982830746486 0  0.3556975402334957 0.4099983659533836 0  0.3141745975780724 0.4099984433296737 0  0.2741017005394873 0.4099985075143621 0  0.2354282242980731 0.4099985535963081 0  0.1981052808876719 0.4099985838654693 0  0.162085721217997 0.4099986016168308 0  0.1273240289519611 0.409998611514587 0  0.09377627244984783 0.4099986172173704 0  0.06140005051364503 0.4099986201833252 0  0.0301544676428456 0.4099986217249493 0  0.2497468076502589 0.2050254481002335 0  0.2497468076502614 0.1949745518997913 0  0.2469965139373161 0.1829310391638253 0  0.2439893626783603 0.1762307326213396 0  0.2400332058959261 0.1700432924958624 0  0.2352133907350626 0.1645021538164665 0  0.2296338974374222 0.1597268307553953 0  0.2234150954569747 0.1558203350384894 0  0.2166911464743104 0.1528669372412217 0  0.2096071099877936 0.1509303487412376 0  0.2023158139945566 0.1500523444100403 0  0.1949745576164834 0.1502518653074879 0  0.1877417179723348 0.1515246047684534 0  0.1807733331091106 0.1538431046585448 0  0.1742197359617023 0.1571573455311854 0  0.1682223108950458 0.1613958270919975 0  0.1629104437879253 0.1664671095758449 0  0.1583987304711423 0.1722617872298624 0  0.1547845047267992 0.1786548479396865 0  0.1521457382331286 0.185508370575099 0  0.1505393586574953 0.1926745001385704 0  0.1505393616142308 0.2073227756600285 0  0.1521457441753369 0.2144889062213457 0  0.1547845135922333 0.2213424305860364 0  0.1583987423076197 0.2277354939731053 0  0.1629104585508552 0.2335301754257303 0  0.1682223286442255 0.2386014633893661 0  0.1742197566380283 0.2428399523201637 0  0.1807733567665364 0.2461542034166496 0  0.187741744606609 0.2484727173573163 0  0.1949745872489235 0.2497454761779954 0  0.2023158465933697 0.2499450226607398 0  0.2096071456210968 0.2490670540341414 0  0.2166911850466026 0.2471305125182718 0  0.223415136954648 0.2441771803498054 0  0.2296339417119445 0.240270773643515 0  0.2352134374191189 0.2354955764481215 0  0.2400332542157085 0.2299546138760115 0  0.2439894104687952 0.2237674517061781 0  0.2469965551738313 0.217067621401238 0  0.2564581352948286 0.209999347355334 0  0.2639264470796177 0.209999126554371 0  0.2713947571764493 0.2099989827131855 0  0.2788630589286249 0.2099988715006002 0  0.2863313621114948 0.2099987791248105 0  0.2937996648633078 0.2099986979139621 0  0.3012679670913377 0.2099986240806024 0  0.3087362683265226 0.2099985687591202 0  0.3162045743877679 0.2099985161204811 0  0.3236728747365001 0.2099984673544573 0  0.3311411813541247 0.2099984230984091 0  0.3386094809232019 0.2099983823572646 0  0.3460777864726917 0.2099983430867438 0  0.3535460866665184 0.2099983003086108 0  0.3610143866906951 0.2099982791965884 0  0.3684826909041998 0.2099982542242156 0  0.3759509891272165 0.209998227864695 0  0.3834192929697527 0.2099982032510237 0  0.39088759089541 0.2099981792980751 0  0.3983558947193207 0.2099981567295492 0  0.4058241921854118 0.2099981340276159 0  0.41329249545805 0.2099981099823522 0  0.4207607930141675 0.2099980805013748 0  0.4282290923558722 0.2099980693782993 0  0.4356973957812289 0.2099980535246143 0  0.4431656948213251 0.2099980361080316 0  0.4506339989472682 0.2099980183997845 0  0.4581022981147722 0.2099980015570921 0  0.4655706031537247 0.2099979853724531 0  0.4730389023694991 0.2099979699339054 0  0.4805072083043669 0.2099979549496463 0  0.4879755083419424 0.2099979409605263 0  0.4954438157105698 0.2099979266220212 0  0.5029121160735807 0.2099979152593724 0  0.5103804238675551 0.2099979062023817 0  0.5178487248809279 0.2099978980825527 0  0.5253170344083853 0.2099978897026823 0  0.5327853357609319 0.2099978816947695 0  0.5402536454896559 0.2099978758255245 0  0.5477219475969681 0.2099978725706487 0  0.5551902578634466 0.2099978672830104 0  0.562658561267474 0.2099978564719242 0  0.5701268622768874 0.2099978743710526 0  0.5775951702482568 0.209997886051745 0  0.5850634703733596 0.20999789263791 0  0.5925317735708653 0.209997904188997 0  0.6000000709843151 0.2049979110748024 0  0.6000000595325383 0.1949979123986572 0  0.5925317541252245 0.1899979023815921 0  0.5850634549358278 0.18999788779505 0  0.5775951482121194 0.1899978755729592 0  0.5701268478491373 0.1899978637424385 0  0.562658541853048 0.1899978469275884 0  0.555190234131516 0.18999785482416 0  0.5477219336408568 0.1899978565240397 0  0.5402536240604989 0.1899978585451482 0  0.5327853238112098 0.1899978626501235 0  0.5253170132814667 0.1899978686356681 0  0.5178487115881441 0.1899978761592976 0  0.5103804016360896 0.1899978848562303 0  0.5029121012021602 0.1899978947579255 0  0.4954437915709902 0.1899979065310378 0  0.4879754911173764 0.1899979200061059 0  0.4805071818834816 0.1899979348377747 0  0.4730388804744642 0.1899979504807312 0  0.4655705718174197 0.1899979671250507 0  0.4581022715070397 0.1899979845039113 0  0.4506339640427156 0.1899980027638188 0  0.4431656636770402 0.1899980217230526 0  0.4356973561360038 0.1899980411565456 0  0.4282290546402245 0.1899980597757885 0  0.4207607482170271 0.1899980735909925 0  0.4132924429818783 0.1899981041828202 0  0.4058241424260811 0.1899981310013888 0  0.3983558367678551 0.1899981553631971 0  0.3908875355407366 0.189998180198131 0  0.3834192295924329 0.189998205362535 0  0.3759509279847699 0.189998231166163 0  0.3684826222010341 0.1899982578853819 0  0.3610143213490992 0.1899982830818387 0  0.3535460155003971 0.1899983056577405 0  0.3460777085489988 0.1899983484933148 0  0.3386094068918328 0.1899983892325087 0  0.3311411000135801 0.1899984304129898 0  0.3236727993478143 0.1899984746876821 0  0.3162044937468851 0.1899985231514755 0  0.3087361934174609 0.1899985747659785 0  0.3012678883821407 0.189998629462542 0  0.2937995853634228 0.1899987024150682 0  0.2863312829532617 0.1899987830282173 0  0.2788629807913775 0.1899988748602234 0  0.2713946745766075 0.189998986709008 0  0.2639263744521047 0.1899991329888875 0  0.256458074746401 0.1899993516653
[...]
<PointData  Vectors="f_30-0"> 
<DataArray  type="Float64"  Name="f_30-0"  NumberOfComponents="3" format="ascii">0.0000000000000000e+00 0.0000000000000000e+00 0.0000000000000000e+00  0.0000000000000000e+00 0.0000000000000000e+00 0.0000000000000000e+00  0.0000000000000000e+00 0.0000000000000000e+00 0.0000000000000000e+00  0.0000000000000000e+00 0.0000000000000000e+00 0.0000000000000000e+00  1.3707375516933422e-02 -6.5846851195438871e-02 0.0000000000000000e+00  3.5952619568060000e-02 -5.9380259482188745e-02 0.0000000000000000e+00  0.0000000000000000e+00 0.0000000000000000e+00 0.0000000000000000e+00  0.0000000000000000e+00 0.0000000000000000e+00 0.0000000000000000e+00  0.0000000000000000e+00 0.0000000000000000e+00 0.0000000000000000e+00  0.0000000000000000e+00 0.0000000000000000e+00 0.0000000000000000e+00  6.8308275969569454e-02 -1.5024108057134028e-01 0.0000000000000000e+00  0.0000000000000000e+00 0.0000000000000000e+00 0.0000000000000000e+00  0.0000000000000000e+00 0.0000000000000000e+00 0.0000000000000000e+00  0.0000000000000000e+00 0.0000000000000000e+00 0.0000000000000000e+00  0.0000000000000000e+00 0.0000000000000000e+00 0.0000000000000000e+00  0.0000000000000000e+00 0.0000000000000000e+00 0.0000000000000000e+00  0.0000000000000000e+00 0.0000000000000000e+00 0.0000000000000000e+00  0.0000000000000000e+00 0.0000000000000000e+00 0.0000000000000000e+00  0.0000000000000000e+00 0.0000000000000000e+00 0.0000000000000000e+00  0.0000000000000000e+00 0.0000000000000000e+00 0.0000000000000000e+00  0.0000000000000000e+00 0.0000000000000000e+00 0.0000000000000000e+00  0.0000000000000000e+00 0.0000000000000000e+00 0.0000000000000000e+00  0.0000000000000000e+00 0.0000000000000000e+00 0.0000000000000000e+00  0.0000000000000000e+00 0.0000000000000000e+00 0.0000000000000000e+00  0.0000000000000000e+00 0.0000000000000000e+00 0.0000000000000000e+00  0.0000000000000000e+00 0.0000000000000000e+00 0.0000000000000000e+00  0.0000000000000000e+00 0.0000000000000000e+00 0.0000000000000000e+00  0.0000000000000000e+00 0.0000000000000000e+00 0.0000000000000000e+00  0.0000000000000000e+00 0.0000000000000000e+00 0.0000000000000000e+00  0.0000000000000000e+00 0.0000000000000000e+00 0.0000000000000000e+00  0.0000000000000000e+00 0.0000000000000000e+00 0.0000000000000000e+00  0.0000000000000000e+00 0.0000000000000000e+00 0.0000000000000000e+00  0.0000000000000000e+00 0.0000000000000000e+00 0.0000000000000000e+00  0.0000000000000000e+00 0.0000000000000000e+00 0.0000000000000000e+00  0.0000000000000000e+00 0.0000000000000000e+00 0.0000000000000000e+00  0.0000000000000000e+00 0.0000000000000000e+00 0.0000000000000000e+00  0.0000000000000000e+00 0.0000000000000000e+00 0.0000000000000000e+00  0.0000000000000000e+00 0.0000000000000000e+00 0.0000000000000000e+00  0.0000000000000000e+00 0.0000000000000000e+00 0.0000000000000000e+00  0.0000000000000000e+00 0.0000000000000000e+00 0.0000000000000000e+00  0.0000000000000000e+00 0.0000000000000000e+00 0.0000000000000000e+00  0.0000000000000000e+00 0.0000000000000000e+00 0.0000000000000000e+00  0.0000000000000000e+00 0.0000000000000000e+00 0.0000000000000000e+00  0.0000000000000000e+00 0.0000000000000000e+00 0.0000000000000000e+00  0.0000000000000000e+00 0.0000000000000000e+00 0.0000000000000000e+00  0.0000000000000000e+00 0.0000000000000000e+00 0.0000000000000000e+00  0.0000000000000000e+00 0.0000000000000000e+00 0.0000000000000000e+00  0.0000000000000000e+00 0.0000000000000000e+00 0.0000000000000000e+00  0.0000000000000000e+00 0.0000000000000000e+00 0.0000000000000000e+00  0.0000000000000000e+00 0.0000000000000000e+00 0.0000000000000000e+00  0.0000000000000000e+00 0.0000000000000000e+00 0.0000000000000000e+00  0.0000000000000000e+00 0.0000000000000000e+00 0.0000000000000000e+00  0.0000000000000000e+00 0.0000000000000000e+00 0.0000000000000000e+00  0.0000000000000000e+00 0.0000000000000000e+00 0.0000000000000000e+00  0.0000000000000000e+00 0.0000000000000000e+00 0.0000000000000000e+00  0.0000000000000000e+00 0.0000000000000000e+00 0.0000000000000000e+00  0.0000000000000000e+00 0.0000000000000000e+00 0.0000000000000000e+00  0.0000000000000000e+00 0.0000000000000000e+00 0.0000000000000000e+00  0.0000000000000000e+00 0.0000000000000000e+00 0.0000000000000000e+00  0.0000000000000000e+00 0.0000000000000000e+00 0.0000000000000000e+00  0.0000000000000000e+00 0.0000000000000000e+00 0.0000000000000000e+00  0.0000000000000000e+00 0.0000000000000000e+00 0.0000000000000000e+00  6.5294985488187946e-09 2.1153803485130398e-09 0.0000000000000000e+00  -2.1532002508820790e-10 2.8331004671298503e-09 0.0000000000000000e+00  -6.7873565303116648e-09 2.5465978726218330e-09 0.0000000000000000e+00  0.0000000000000000e+00 0.0000000000000000e+00 0.0000000000000000e+00  0.0000000000000000e+00 0.0000000000000000e+00 0.0000000000000000e+00  0.0000000000000000e+00 0.0000000000000000e+00 0.0000000000000000e+00  0.0000000000000000e+00 0.0000000000000000e+00 0.0000000000000000e+00  0.0000000000000000e+00 0.0000000000000000e+00 0.0000000000000000e+00  0.0000000000000000e+00 0.0000000000000000e+00 0.0000000000000000e+00  0.0000000000000000e+00 0.0000000000000000e+00 0.0000000000000000e+00  0.0000000000000000e+00 0.0000000000000000e+00 0.0000000000000000e+00  0.0000000000000000e+00 0.0000000000000000e+00 0.0000000000000000e+00  0.0000000000000000e+00 0.0000000000000000e+00 0.0000000000000000e+00  0.0000000000000000e+00 0.0000000000000000e+00 0.0000000000000000e+00  0.0000000000000000e+00 0.0000000000000000e+00 0.0000000000000000e+00  0.0000000000000000e+00 0.0000000000000000e+00 0.0000000000000000e+00  0.0000000000000000e+00 0.0000000000000000e+00 0.0000000000000000e+00  0.0000000000000000e+00 0.0000000000000000e+00 0.0000000000000000e+00  0.0000000000000000e+00 0.0000000000000000e+00 0.0000000000000000e+00  0.0000000000000000e+00 0.0000000000000000e+00 0.0000000000000000e+00  0.0000000000000000e+00 0.0000000000000000e+00 0.0000000000000000e+00  0.0000000000000000e+00 0.0000000000000000e+00 0.0000000000000000e+00  0.0000000000000000e+00 0.0000000000000000e+00 0.0000000000000000e+00  0.0000000000000000e+00 0.0000000000000000e+00 0.0000000000000000e+00  0.0000000000000000e+00 0.0000000000000000e+00 0.0000000000000000e+00  0.0000000000000000e+00 0.0000000000000000e+00 0.0000000000000000e+00  0.0000000000000000e+00 0.0000000000000000e+00 0.0000000000000000e+00  0.0000000000000000e+00 0.0000000000000000e+00 0.0000000000000000e+00  0.0000000000000000e+00 0.0000000000000000e+00 0.0000000000000000e+00  0.0000000000000000e+00 0.0000000000000000e+00 0.0000000000000000e+00  0.0000000000000000e+00 0.0000000000000000e+00 0.0000000000000000e+00  0.0000000000000000e+00 0.0000000000000000e+00 0.0000000000000000e+00  0.0000000000000000e+00 0.0000000000000000e+00 0.0000000000000000e+00  0.0000000000000000e+00 0.0000000000000000e+00 0.0000000000000000e+00  0.0000000000000000e+00 0.0000000000000000e+00 0.0000000000000000e+00  0.0000000000000000e+00 0.0000000000000000e+00 0.0000000000000000e+00  0.0000000000000000e+00 0.0000000000000000e+00 0.0000000000000000e+00  0.0000000000000000e+00 0.0000000000000000e+00 0.0000000000000000e+00  0.0000000000000000e+00 0.0000000000000000e+00 0.0000000000000000e+00  0.0000000000000000e+00 0.0000000000000000e+00 0.0000000000000000e+00  0.0000000000000000e+00 0.0000000000000000e+00 0.0000000000000000e+00  0.0000000000000000e+00 0.0000000000000000e+00 0.0000000000000000e+00  0.0000000000000000e+00 0.0000000000000000e+00 0.0000000000000000e+00  0.0000000000000000e+00 0.0000000000000000e+00 0.0000000000000000e+00  0.0000000000000000e+00 0.0000000000000000e+00 0.0000000000000000e+00  0.0000000000000000e+00 0.0000000000000000e+00 0.0000000000000000e+00  0.0000000000000000e+00 0.0000000000000000e+00 0.0000000000000000e+00  0.0000000000000000e+00 0.0000000000000000e+00 0.0000000000000000e+00  0.0000000000000000e+00 0.0000000000000000e+00 0.0000000000000000e+00  0.0000000000000000e+00 0.0000000000000000e+00 0.0000000000000000e+00  0.0000000000000000e+00 0.0000000000000000e+00 0.0000000000000000e+00  0.0000000000000000e+00 0.0000000000000000e+00 0.0000000000000000e+00  0.0000000000000000e+00 0.0000000000000000e+00 0.0000000000000000e+00  0.0000000000000000e+00 0.0000000000000000e+00 0.0000000000000000e+00  0.0000000000000000e+00 0.0000000000000000e+00 0.0000000000000000e+00  0.0000000000000000e+00 0.0000000000000000e+00 0.0000000000000000e+00  0.0000000000000000e+00 0.0000000000000000e+00 0.0000000000000000e+00  0.0000000000000000e+00 0.0000000000000000e+00 0.0000000000000000e+00  0.0000000000000000e+00 0.0000000000000000e+00 0.0000000000000000e+00  0.0000000000000000e+00 0.0000000000000000e+00 0.0000000000000000e+00  0.0000000000000000e+00 0.0000000000000000e+00 0.0000000000000000e+00  0.0000000000000000e+00 0.0000000000000000e+00 0.0000000000000000e+00  0.0000000000000000e+00 0.0000000000000000e+00 0.0000000000000000e+00  0.0000000000000000e+00 0.0000000000000000e+00 0.0000000000000000e+00  0.0000000000000000e+00 0.0000000000000000e+00 0.0000000000000000e+00  0.0000000000000000e+00 0.0000000000000000e+00 0.0000000000000000e+00  0.0000000000000000e+00 0.0000000000000000e+00 0.0000000000000000e+00  0.0000000000000000e+00 0.0000000000000000e+00 0.0000000000000000e+00  0.0000000000000000e+00 0.0000000000000000e+00 0.0000000000000000e+00  0.0000000000000000e+00 0.0000000000000000e+00 0.0000000000000000e+00  0.0000000000000000e+00 0.0000000000000000e+00 0.0000000000000000e+00  0.0000000000000000e+00 0.0000000000000000e+00 0.0000000000000000e+00  0.0000000000000000e+00 0.0000000000000000e+00 0.0000000000000000e+00  0.0000000000000000e+00 0.0000000000000000e+00 0.0000000000000000e+00  0.0000000000000000e+00 0.0000000000000000e+00 0.0000000000000000e+00  0.0000000000000000e+00 0.0000000000000000e+00 0.0000000000000000e+00  0.0000000000000000e+00 0.0000000000000000e+00 0.0000000000000000e+00  0.0000000000000000e+00 0.0000000000000000e+00 0.0000000000000000e+00  0.0000000000000000e+00 0.0000000000000000e+00 0.0000000000000000e+00  0.0000000000000000e+00 0.0000000000000000e+00 0.0000000000000000e+00  0.0000000000000000e+00 0.0000000000000000e+00 0.0000000000000000e+00  1.0118243272199834e-01 3.3923360486505538e-01 0.0000000000000000e+00  8.0845383200263590e-02 2.7880600924798665e-01 0.0000000000000000e+00  9.1776831443113799e-02 1.8090990065605503e-01 0.0000000000000000e+00  4.2159532196213642e-02 6.3740295772558450e-02 0.0000000000000000e+00  3.8402783675614789e-02 5.5792045446270491e-03 0.0000000000000000e+00  2.5438538841473988e-02 -8.2103356836344635e-02 0.0000000000000000e+00  3.4658007292844767e-02 -1.2874443402926483e-01 0.0000000000000000e+00  -8.8611532573559543e-03 -1.6446066589569949e-01 0.0000000000000000e+00  3.8216156409655179e-02 -1.7686881931572454e-01 0.0000000000000000e+00  -9.8834796267723742e-03 -1.9393342023686505e-01 0.0000000000000000e+00  4.0466772838517032e-02 -2.1352312073218799e-01 0.0000000000000000e+00  -8.1148331391925638e-03 -2.1558720730969813e-01 0.0000000000000000e+00  5.0555892005145223e-02 -2.3821778031080171e-01 0.0000000000000000e+00  8.1644962775707618e-03 -2.3890793877443003e-01 0.0000000000000000e+00  2.3111541241801819e-03 -2.2264196968465597e-01 0.0000000000000000e+00  2.3998770326280675e-02 -1.9541624865906274e-01 0.0000000000000000e+00  -2.7425194937570683e-03 -2.0991360827472941e-01 0.0000000000000000e+00  2.2776395445923119e-02 -1.9526166940709719e-01 0.0000000000000000e+00  -1.0326439887178299e-02 -1.9939059969067469e-01 0.0000000000000000e+00  2.5742301244121593e-02 -2.0170508116486213e-01 0.0000000000000000e+00  -2.1754874846262439e-02 -2.0200249462130823e-01 0.0000000000000000e+00  3.4535887158725881e-02 -2.1165913314231877e-01 0.0000000000000000e+00  -1.6035160718509602e-02 -2.1618990071478958e-01 0.0000000000000000e+00  -2.7123559086877379e-02 -2.1831634581215723e-01 0.0000000000000000e+00  -1.2343992525681976e-03 -2.3420499741610543e-01 0.0000000000000000e+00  -2.3795981759676801e-02 -2.3633343887465785e-01 0.0000000000000000e+00  -4.3213443220341324e-03 -2.5475580353989918e-01 0.0000000000000000e+00  -3.8944445215834490e-02 -2.6836665170986901e-01 0.0000000000000000e+00  1.1741568165366298e-02 -2.7344843364432081e-01 0.0000000000000000e+00  -5.2060550871682938e-02 -2.7898429293092358e-01 0.0000000000000000e+00  1.5284549838493188e-02 -2.9631552457919352e-01 0.0000000000000000e+00  -4.7975716440596013e-02 -2.8992088563385093e-01 0.0000000000000000e+00  1.0998155339357767e-02 -3.4643253212044717e-01 0.0000000000000000e+00  -3.8975726054612442e-02 -3.4638343536757898e-01 0.0000000000000000e+00  2.1085844287784608e-02 -3.1543263863857951e-01 0.0000000000000000e+00  -4.2388625717444152e-02 -2.9915670640972819e-01 0.0000000000000000e+00  2.9609306918605534e-02 -3.0905573471376696e-01 0.0000000000000000e+00  -4.3771016709195275e-02 -3.4258559279068262e-01 0.0000000000000000e+00  4.6134103114853366e-02 -3.5032525909132495e-01 0.0000000000000000e+00  -2.2208353740551828e-02 -3.1684853692536930e-01 0.0000000000000000e+00  5.4800058483470922e-02 -3.0874161295226921e-01 0.0000000000000000e+00  2.3877557703404096e-02 -2.9818934022688154e-01 0.0000000000000000e+00  -5.7150526637175783e-03 -2.6341933326574785e-01 0.0000000000000000e+00  6.5767223996585314e-02 -2.0469676340394649e-01 0.0000000000000000e+00  2.6817650374946392e-02 -2.5531239163509495e-01 0.0000000000000000e+00  1.1644744013456260e-01 -2.1814002697921334e-01 0.0000000000000000e+00  1.1388552271464673e-01 -1.6056781078705365e-01 0.0000000000000000e+00  -1.2026743700448239e-02 -1.2058853425750307e-01 0.0000000000000000e+00  6.5436751486355558e-03 -1.4501454626449400e-01 0.0000000000000000e+00  6.6266865085264942e-02 -2.0073834987924921e-01 0.0000000000000000e+00  7.2184415940291010e-03 -2.2328096304829337e-01 0.0000000000000000e+00  6.0919126775117578e-02 -2.7036098393674879e-01 0.0000000000000000e+00  2.6629074656638795e-02 -2.6562707422959309e-01 0.0000000000000000e+00  -2.2813612218805360e-02 -2.9501292360901632e-01 0.0000000000000000e+00  5.8680448254959675e-02 -2.8798455646920085e-01 0.0000000000000000e+00  -2.9276588840943561e-02 -2.9845734234313953e-01 0.0000000000000000e+00  5.0117525574386985e-02 -3.0464197109154650e-01 0.0000000000000000e+00  -3.5566302680668453e-02 -3.0454014518396544e-01 0.0000000000000000e+00  4.0853569956764084e-02 -2.9854909691172510e-01 0.0000000000000000e+00  -3.7351572176792316e-02 -2.9506491777622390e-01 0.0000000000000000e+00  3.8773427276049648e-02 -2.8918256866193059e-01 0.0000000000000000e+00  -4.4033679052963008e-02 -2.8492946367153138e-01 0.0000000000000000e+00  2.8842568092085043e-02 -2.7827092194989428e-01 0.0000000000000000e+00  -4.3559779383110911e-02 -2.7132077250234404e-01 0.0000000000000000e+00  2.4114915003479506e-02 -2.6104762258775449e-01 0.0000000000000000e+00  -4.3491490224511639e-02 -2.5086553024874453e-01 0.0000000000000000e+00  2.1249841921214273e-02 -2.3681613657690187e-01 0.0000000000000000e+00  -4.0757596546761456e-02 -2.2980551508405167e-01 0.0000000000000000e+00  2.0333210044449785e-02 -2.2484914617230944e-01 0.0000000000000000e+00  -3.6497007641341173e-02 -2.1693854897926562e-01 0.0000000000000000e+00  2.0832371533695066e-02 -2.2055001888364661e-01 0.0000000000000000e+00  -1.4013241942064495e-02 -2.1119625099741773e-01 0.0000000000000000e+00  -3.1653026583027898e-02 -2.1297590944704639e-01 0.0000000000000000e+00  5.1936514780593036e-03 -1.9651336422482915e-01 0.0000000000000000e+00  -2.6852459214588436e-02 -2.0608912761730477e-01 0.0000000000000000e+00  9.2373590052862980e-03 -2.1054431248697902e-01 0.0000000000000000e+00  -2.5055103137554137e-02 -2.1319784339170761e-01 0.0000000000000000e+00  8.8082541248260589e-03 -2.1445724790440740e-01 0.0000000000000000e+00  -2.2674996985067128e-02 -2.0962915072647514e-01 0.0000000000000000e+00  1.2672839816949022e-02 -2.2215513490478017e-01 0.0000000000000000e+00  -2.0003045951922983e-03 -2.2574953898776548e-01 0.0000000000000000e+00  -5.1236865291150215e-02 -2.3693945852449372e-01 0.0000000000000000e+00  7.8573884457653256e-03 -2.1717136275212415e-01 0.0000000000000000e+00  -5.5177439780795028e-02 -2.1467799591059875e-01 0.0000000000000000e+00  1.3406656535945032e-03 -1.9893778132001974e-01 0.0000000000000000e+00  -5.5100433698346461e-02 -1.8116130918484763e-01 0.0000000000000000e+00  -2.7921595979588324e-03 -1.6179191333922546e-01 0.0000000000000000e+00  -4.2730256285620119e-02 -1.2807271030649911e-01 0.0000000000000000e+00  -3.5858115243369793e-02 -8.5268748181740919e-02 0.0000000000000000e+00  -3.9438012246471109e-02 -4.9637639766303551e-03 0.0000000000000000e+00  -2.7540775564468260e-02 4.7475517326720444e-02 0.0000000000000000e+00  -7.7620941046153760e-02 1.7420074467024768e-01 0.0000000000000000e+00  -1.0376391846553498e-01 3.1545036737273630e-01 0.0000000000000000e+00  -1.2801628716741967e-01 3.4902040006373958e-01 0.0000000000000000e+00  -6.9699062710192883e-03 -1.7406565144356947e-01 0.0000000000000000e+00  -9.7590380022772264e-03 1.3419339456766299e-01 0.0000000000000000e+00  8.5341927208302778e-04 1.8688959599846861e-01 0.0000000000000000e+00  9.6294777904683253e-03 2.4224548492647616e-01 0.0000000000000000e+00  -1.1964806397807698e-02 -9.5566737881776886e-02 0.0000000000000000e+00  2.5948515961296565e-03 2.5396882361755169e-01 0.0000000000000000e+00  4.7300118940712616e-03 1.9363103901498570e-02 0.0000000000000000e+00  2.1389158953278370e-03 2.4507368611187025e-01 0.0000000000000000e+00  4.6194743360256528e-03 1.3692121194167745e-01 0.0000000000000000e+00  5.5588515365363658e-04 1.6290628240256838e-01 0.0000000000000000e+00  -7.8511973971578924e-03 2.4584557763415602e-01 0.0000000000000000e+00  4.8784768889441731e-03 1.7161972958951452e-01 0.0000000000000000e+00  -3.0810820013397540e-03 2.1789167035746576e-01 0.0000000000000000e+00  -3.6362444137570320e-03 1.6943121815595535e-01 0.0000000000000000e+00  6.2136581630004766e-04 1.6558446684435971e-01 0.0000000000000000e+00  -3.4245499475650705e-03 2.0432738660612856e-01 0.0000000000000000e+00  3.3755661394058540e-03 2.3651099081984922e-01 0.0000000000000000e+00  -3.2254471501204406e-03 1.6362877708276816e-01 0.0000000000000000e+00  -1.0122144248826683e-03 1.8848505005825614e-01 0.0000000000000000e+00  -1.1188602617867079e-03 1.6145112652202456e-01 0.0000000000000000e+00  -6.2880689961091656e-03 1.7505367373065070e-01 0.0000000000000000e+00  2.9958845730531270e-03 1.3906192010639049e-01 0.0000000000000000e+00  -1.3561028778487760e-03 1.4592683564353071e-01 0.0000000000000000e+00  -4.8021789755086641e-03 1.9313752766822340e-01 0.0000000000000000e+00  3.9201571978862973e-03 8.3999907108275984e-02 0.0000000000000000e+00  9.8990711887350907e-03 1.3715860028495411e-01 0.0000000000000000e+00  -4.3500802260840146e-02 -1.4434430586114602e-01 0.0000000000000000e+00  -3.4636967498876225e-03 1.7203879186184515e-01 0.0000000000000000e+00  -8.0034715120636309e-03 1.8037754477949988e-01 0.0000000000000000e+00  3.0425160764322112e-02 -1.0535429660889998e-02 0.0000000000000000e+00  2.3117765584727713e-03 1.0876102313475609e-01 0.0000000000000000e+00  -3.6883718330411809e-03 1.5533135314796370e-01 0.0000000000000000e+00  1.4621452599148713e-04 1.6636581628047151e-01 0.0000000000000000e+00  -9.2197773843381570e-03 1.1906837900923269e-01 0.0000000000000000e+00  6.9297693360903675e-04 1.4323840147488512e-01 0.0000000000000000e+00  4.0621731434901127e-03 1.1611013923953370e-01 0.0000000000000000e+00  -2.5670268850633646e-03 1.1765521976269576e-01 0.0000000000000000e+00  -1.2845113302415413e-03 1.3919583035992722e-01 0.0000000000000000e+00  -2.0189678539471105e-03 1.7696312988626028e-01 0.0000000000000000e+00  3.6667960786340103e-03 1.2754698399566616e-01 0.0000000000000000e+00  1.9942896813379333e-03 1.2220750650015164e-01 0.0000000000000000e+00  -3.5111177171488615e-02 -1.8473704229320695e-01 0.0000000000000000e+00  4.5565298262507679e-02 -1.7366776553083416e-01 0.0000000000000000e+00  -7.3510752624477801e-02 9.8517127353616049e-02 0.0000000000000000e+00  2.5692205193576623e-02 -1.4565717059028088e-01 0.0000