<?xml version="1.0"?>
<VTKFile type="UnstructuredGrid"  version="0.1"  >
<UnstructuredGrid>
<Piece  NumberOfPoints="1419" NumberOfCells="2698">
<Points>
<DataArray  type="Float64"  NumberOfComponents="3"  format="ascii">6.176876561113433e-10 -8.996231644163767e-07 0  1.118339096115399e-08 0.4099990965583026 0  2.500000015335516 -1.31586012762811e-06 0  2.500000015335524 0.4099986841398838 0  0.6000000159976939 0.1899986388542239 0  0.6000000227893445 0.2099986407225174 0  0.25 0.2 0  0.1500000056771597 0.1999991065442333 0  0.2489897948556636 0.21 0  0.2489897948556636 0.19 0  0.6000000207463037 0.1999986338631531 0  1.106497840743092e-08 0.3807133825325529 0  1.072746721352142e-08 0.3514276689538993 0  1.015933657212565e-08 0.3221419557173404 0  9.359308352559492e-09 0.2928562425961906 0  8.367137826021331e-09 0.2635705294160392 0  7.22049838193682e-09 0.2342848160601004 0  5.964840431547159e-09 0.2049991023531428 0  4.70305644229053e-09 0.175713388324808 0  3.526244005331718e-09 0.1464276739424397 0  2.493010835540882e-09 0.1171419592721538 0  1.684261248310489e-09 0.08785624442085067 0  1.086320695684555e-09 0.05857052954485364 0  7.309203187170011e-10 0.02928481481672215 0  0.03015443810163575 -8.9979669667905e-07 0  0.06140001997229635 -9.004253927986046e-07 0  0.09377624019227018 -9.018509858727876e-07 0  0.127323994198904 -9.046701452184271e-07 0  0.1620856832637964 -9.099542883095782e-07 0  0.1981052392078669 -9.203300539281028e-07 0  0.2354281787477953 -9.397185262023218e-07 0  0.2741016514913619 -9.706272568434528e-07 0  0.3141745458591839 -1.013392113625979e-06 0  0.3556974871888426 -1.066327625867563e-06 0  0.3987229505516536 -1.123217888792452e-06 0  0.4433053043729409 -1.177672110484503e-06 0  0.4895008778681085 -1.225451659064881e-06 0  0.5373680660912953 -1.262649752753093e-06 0  0.5869673424066187 -1.287835542546565e-06 0  0.6383613781555844 -1.303285847001613e-06 0  0.6916151260577431 -1.310930609765264e-06 0  0.7467958729164796 -1.314280945319841e-06 0  0.8039733604927185 -1.315632394102981e-06 0  0.863219828523979 -1.316070146413931e-06 0  0.924610147559556 -1.316136414511992e-06 0  0.9882218961451152 -1.31608189367454e-06 0  1.054135460726159 -1.316015771285906e-06 0  1.122434115777465 -1.315960661770311e-06 0  1.193204192419136 -1.315920685298195e-06 0  1.266535105182714 -1.315895162301728e-06 0  1.342519531363721 -1.315880131175947e-06 0  1.421253463829448 -1.315871224377456e-06 0  1.502836404436522 -1.315865996185804e-06 0  1.587371455091624 -1.315863179526747e-06 0  1.674965434111495 -1.315861688344458e-06 0  1.765729017160374 -1.315860894576951e-06 0  1.85977692421526 -1.315860504314313e-06 0  1.957227992822423 -1.315860299665889e-06 0  2.058205345205387 -1.315860206496896e-06 0  2.162836606525437 -1.315860158947407e-06 0  2.271253972626368 -1.315860138798419e-06 0  2.383594462138936 -1.315860130175313e-06 0  2.500000015335516 0.1024986841396352 0  2.500000015335519 0.2049986841393523 0  2.500000015335524 0.3074986841396004 0  2.383594462139182 0.4099986841398863 0  2.271253972626849 0.409998684139895 0  2.162836606526151 0.4099986841399161 0  2.058205345206369 0.4099986841399615 0  1.957227992823743 0.4099986841400537 0  1.859776924217113 0.4099986841402684 0  1.765729017163068 0.4099986841406574 0  1.674965434115766 0.4099986841414842 0  1.587371455098686 0.40999868414298 0  1.50283640444875 0.4099986841458295 0  1.42125346385135 0.4099986841513385 0  1.342519531402005 0.4099986841607005 0  1.266535105249088 0.4099986841770776 0  1.193204192535803 0.4099986842079382 0  1.122434115979001 0.4099986842633275 0  1.054135461059162 0.4099986843560358 0  0.9882218967008592 0.4099986845399123 0  0.9246101484566788 0.409998684878019 0  0.8632198299592355 0.4099986855262461 0  0.8039733627400005 0.4099986868239547 0  0.7467958763687568 0.4099986894282277 0  0.6916151312000679 0.4099986944997666 0  0.6383613856005519 0.409998704351956 0  0.5869673528005658 0.4099987212192163 0  0.5373680799048157 0.4099987471616349 0  0.4895008953724014 0.4099987838523356 0  0.4433053254273233 0.4099988293244419 0  0.3987229744784991 0.4099988804985201 0  0.3556975128323442 0.4099989332996728 0  0.3141745718309921 0.4099989825364747 0  0.2741016763270176 0.4099990234111495 0  0.235428201454405 0.4099990527973141 0  0.1981052592271582 0.409999072120951 0  0.1620857005303635 0.4099990834615657 0  0.127324009031263 0.4099990897870658 0  0.09377625310003161 0.4099990934317181 0  0.06140003154316734 0.409999095327107 0  0.0301544488947881 0.4099990963121878 0  0.2497468076502589 0.2050254481002335 0  0.2497468076502614 0.1949745518997913 0  0.2469965141038009 0.1829312653181847 0  0.2439893612065358 0.176231040399962 0  0.2400332028274189 0.1700436486920707 0  0.2352133862753221 0.1645025408889552 0  0.2296338917533716 0.1597272399337575 0  0.2234150887009275 0.1558207601263527 0  0.216691138773727 0.1528673739123999 0  0.2096071014578908 0.1509307937792745 0  0.2023158046875639 0.1500527959078932 0  0.1949745476132703 0.1502523214319572 0  0.1877417073089899 0.1515250644017389 0  0.1807733218348828 0.1538435668277431 0  0.1742197240936334 0.1571578096252178 0  0.1682222984662696 0.1613962925797695 0  0.1629104308026348 0.1664675761311653 0  0.1583987169514486 0.1722622545632216 0  0.1547844906725291 0.1786553158611638 0  0.1521457236603955 0.1855088389144903 0  0.1505393435594434 0.1926749687734316 0  0.1505393454962159 0.2073232445189347 0  0.1521457275527401 0.21448937501682 0  0.1547844964801571 0.2213428991775143 0  0.1583987247061116 0.2277359621899714 0  0.1629104404760063 0.233530643054844 0  0.1682223100988674 0.2386019301161802 0  0.1742197376480508 0.2428404177920364 0  0.18077333734695 0.2461546671403766 0  0.1877417247805657 0.248473178571906 0  0.1949745670592634 0.2497459339549702 0  0.2023158260887813 0.2499454758921461 0  0.2096071248602771 0.2490675009431937 0  0.2166911641198928 0.2471309510017093 0  0.2234151159857125 0.2441776070220714 0  0.2296339208685409 0.2402711846032583 0  0.2352134169791473 0.2354959650252844 0  0.2400332345890699 0.2299549714763328 0  0.2439893925641606 0.2237677610804092 0  0.2469965410667457 0.2170678488041247 0  0.2564581185421504 0.2099995663864938 0  0.2639264258197584 0.2099994185417854 0  0.271394731511984 0.2099993220785746 0  0.2788630338796944 0.209999248287753 0  0.2863313363404233 0.2099991878710042 0  0.2937996398361969 0.2099991349653209 0  0.3012679419397977 0.2099990865920344 0  0.3087362430083717 0.209999053425434 0  0.31620454775527 0.2099990214407157 0  0.3236728480866828 0.2099989916870876 0  0.3311411527602984 0.2099989650133523 0  0.3386094524873324 0.2099989404931365 0  0.3460777561555904 0.2099989170169871 0  0.3535460563300025 0.2099988913944769 0  0.3610143566460231 0.2099988786522045 0  0.3684826597152796 0.2099988634936189 0  0.3759509592621229 0.209998847635414 0  0.3834192623299567 0.209998832695202 0  0.3908875618816632 0.2099988182382028 0  0.3983558650221642 0.2099988046297434 0  0.4058241644141886 0.2099987908889666 0  0.4132924672220521 0.2099987764219129 0  0.4207607667870661 0.2099987589193907 0  0.4282290671862551 0.209998751584658 0  0.4356973699494318 0.2099987416934189 0  0.4431656701484876 0.2099987307117554 0  0.4506339731664831 0.2099987196233167 0  0.4581022732619343 0.2099987088142133 0  0.4655705765826883 0.2099986982621611 0  0.4730388765207337 0.2099986880111347 0  0.4805071801850785 0.2099986779684092 0  0.4879754803349267 0.2099986682427565 0  0.4954437844728862 0.2099986586808333 0  0.5029120844205044 0.2099986502423236 0  0.5103803888182518 0.209998642606064 0  0.5178486892508978 0.2099986357662625 0  0.5253169950522597 0.2099986289502811 0  0.5327852954948878 0.2099986225922134 0  0.5402536012575753 0.2099986173935498 0  0.5477219020917934 0.2099986137179674 0  0.5551902085894027 0.209998608436107 0  0.5626585104094096 0.209998599683909 0  0.5701268118127388 0.2099986110222392 0  0.5775951183814657 0.209998618381711 0  0.5850634193208306 0.2099986235914872 0  0.5925317231465923 0.2099986320693995 0  0.6000000237168629 0.2049986362572861 0  0.6000000167709088 0.194998636550886 0  0.5925317130811794 0.1899986287358757 0  0.5850634130885835 0.1899986186071136 0  0.5775951080215309 0.1899986107326846 0  0.5701268078581383 0.1899986032568035 0  0.5626585034067397 0.189998592389909 0  0.5551901980135144 0.1899985995043182 0  0.5477218976686352 0.1899986023987731 0  0.5402535912545914 0.189998605386543 0  0.5327852910956493 0.1899986095860465 0  0.5253169842653375 0.1899986150130427 0  0.5178486830726995 0.1899986214785353 0  0.510380376629606 0.1899986287759967 0  0.5029120760421217 0.1899986367751141 0  0.4954437699808007 0.1899986455904752 0  0.4879754692450839 0.1899986550888756 0  0.4805071633400229 0.1899986651915764 0  0.4730388619105302 0.1899986757094881 0  0.4655705562821822 0.189998686725098 0  0.4581022553179016 0.1899986980708928 0  0.4506339502195036 0.1899987097236141 0  0.443165649134513 0.189998721649048 0  0.4356973439293539 0.1899987337583591 0  0.4282290421643284 0.1899987453383672 0  0.4207607375173429 0.1899987541123506 0  0.4132924334957154 0.1899987725726549 0  0.4058241322153774 0.1899987887511348 0  0.3983558279600073 0.1899988034716892 0  0.3908875263631705 0.1899988184687655 0  0.3834192219650479 0.1899988337194401 0  0.3759509201900587 0.1899988493744637 0  0.3684826158448016 0.1899988656330034 0  0.3610143145264069 0.1899988808127825 0  0.3535460101465858 0.1899988942330486 0  0.3460777051316906 0.1899989202405699 0  0.3386094036054574 0.1899989448755388 0  0.3311410985414407 0.1899989697013846 0  0.3236727976581387 0.1899989965354849 0  0.3162044930990828 0.1899990260777353 0  0.308736192371889 0.1899990574796525 0  0.3012678878671416 0.1899990903696524 0  0.29379958478178 0.1899991381083872 0  0.2863312833097648 0.1899991907392239 0  0.2788629810959271 0.189999250959303 0  0.2713946782479928 0.1899993245409137 0  0.2639263783482879 0.1899994216442928 0  0.2564580794362895 0.1899995689142965 
[...]
<PointData  Vectors="f_30-0"> 
<DataArray  type="Float64"  Name="f_30-0"  NumberOfComponents="3" format="ascii">0.0000000000000000e+00 0.0000000000000000e+00 0.0000000000000000e+00  0.0000000000000000e+00 0.0000000000000000e+00 0.0000000000000000e+00  0.0000000000000000e+00 0.0000000000000000e+00 0.0000000000000000e+00  0.0000000000000000e+00 0.0000000000000000e+00 0.0000000000000000e+00  7.4312045270999395e-03 -4.3474808487372667e-02 0.0000000000000000e+00  1.2631451810613488e-02 -3.8657814351418129e-02 0.0000000000000000e+00  0.0000000000000000e+00 0.0000000000000000e+00 0.0000000000000000e+00  0.0000000000000000e+00 0.0000000000000000e+00 0.0000000000000000e+00  0.0000000000000000e+00 0.0000000000000000e+00 0.0000000000000000e+00  0.0000000000000000e+00 0.0000000000000000e+00 0.0000000000000000e+00  3.3598893365509537e-02 -1.0775901406964979e-01 0.0000000000000000e+00  0.0000000000000000e+00 0.0000000000000000e+00 0.0000000000000000e+00  0.0000000000000000e+00 0.0000000000000000e+00 0.0000000000000000e+00  0.0000000000000000e+00 0.0000000000000000e+00 0.0000000000000000e+00  0.0000000000000000e+00 0.0000000000000000e+00 0.0000000000000000e+00  0.0000000000000000e+00 0.0000000000000000e+00 0.0000000000000000e+00  0.0000000000000000e+00 0.0000000000000000e+00 0.0000000000000000e+00  0.0000000000000000e+00 0.0000000000000000e+00 0.0000000000000000e+00  0.0000000000000000e+00 0.0000000000000000e+00 0.0000000000000000e+00  0.0000000000000000e+00 0.0000000000000000e+00 0.0000000000000000e+00  0.0000000000000000e+00 0.0000000000000000e+00 0.0000000000000000e+00  0.0000000000000000e+00 0.0000000000000000e+00 0.0000000000000000e+00  0.0000000000000000e+00 0.0000000000000000e+00 0.0000000000000000e+00  0.0000000000000000e+00 0.0000000000000000e+00 0.0000000000000000e+00  0.0000000000000000e+00 0.0000000000000000e+00 0.0000000000000000e+00  0.0000000000000000e+00 0.0000000000000000e+00 0.0000000000000000e+00  0.0000000000000000e+00 0.0000000000000000e+00 0.0000000000000000e+00  0.0000000000000000e+00 0.0000000000000000e+00 0.0000000000000000e+00  0.0000000000000000e+00 0.0000000000000000e+00 0.0000000000000000e+00  0.0000000000000000e+00 0.0000000000000000e+00 0.0000000000000000e+00  0.0000000000000000e+00 0.0000000000000000e+00 0.0000000000000000e+00  0.0000000000000000e+00 0.0000000000000000e+00 0.0000000000000000e+00  0.0000000000000000e+00 0.0000000000000000e+00 0.0000000000000000e+00  0.0000000000000000e+00 0.0000000000000000e+00 0.0000000000000000e+00  0.0000000000000000e+00 0.0000000000000000e+00 0.0000000000000000e+00  0.0000000000000000e+00 0.0000000000000000e+00 0.0000000000000000e+00  0.0000000000000000e+00 0.0000000000000000e+00 0.0000000000000000e+00  0.0000000000000000e+00 0.0000000000000000e+00 0.0000000000000000e+00  0.0000000000000000e+00 0.0000000000000000e+00 0.0000000000000000e+00  0.0000000000000000e+00 0.0000000000000000e+00 0.0000000000000000e+00  0.0000000000000000e+00 0.0000000000000000e+00 0.0000000000000000e+00  0.0000000000000000e+00 0.0000000000000000e+00 0.0000000000000000e+00  0.0000000000000000e+00 0.0000000000000000e+00 0.0000000000000000e+00  0.0000000000000000e+00 0.0000000000000000e+00 0.0000000000000000e+00  0.0000000000000000e+00 0.0000000000000000e+00 0.0000000000000000e+00  0.0000000000000000e+00 0.0000000000000000e+00 0.0000000000000000e+00  0.0000000000000000e+00 0.0000000000000000e+00 0.0000000000000000e+00  0.0000000000000000e+00 0.0000000000000000e+00 0.0000000000000000e+00  0.0000000000000000e+00 0.0000000000000000e+00 0.0000000000000000e+00  0.0000000000000000e+00 0.0000000000000000e+00 0.0000000000000000e+00  0.0000000000000000e+00 0.0000000000000000e+00 0.0000000000000000e+00  0.0000000000000000e+00 0.0000000000000000e+00 0.0000000000000000e+00  0.0000000000000000e+00 0.0000000000000000e+00 0.0000000000000000e+00  0.0000000000000000e+00 0.0000000000000000e+00 0.0000000000000000e+00  0.0000000000000000e+00 0.0000000000000000e+00 0.0000000000000000e+00  0.0000000000000000e+00 0.0000000000000000e+00 0.0000000000000000e+00  0.0000000000000000e+00 0.0000000000000000e+00 0.0000000000000000e+00  0.0000000000000000e+00 0.0000000000000000e+00 0.0000000000000000e+00  0.0000000000000000e+00 0.0000000000000000e+00 0.0000000000000000e+00  0.0000000000000000e+00 0.0000000000000000e+00 0.0000000000000000e+00  0.0000000000000000e+00 0.0000000000000000e+00 0.0000000000000000e+00  0.0000000000000000e+00 0.0000000000000000e+00 0.0000000000000000e+00  4.6222592752197822e-09 1.5637251490666152e-09 0.0000000000000000e+00  -1.9103993846934509e-10 2.0135342426367718e-09 0.0000000000000000e+00  -4.9866166586539789e-09 1.8862784846954532e-09 0.0000000000000000e+00  0.0000000000000000e+00 0.0000000000000000e+00 0.0000000000000000e+00  0.0000000000000000e+00 0.0000000000000000e+00 0.0000000000000000e+00  0.0000000000000000e+00 0.0000000000000000e+00 0.0000000000000000e+00  0.0000000000000000e+00 0.0000000000000000e+00 0.0000000000000000e+00  0.0000000000000000e+00 0.0000000000000000e+00 0.0000000000000000e+00  0.0000000000000000e+00 0.0000000000000000e+00 0.0000000000000000e+00  0.0000000000000000e+00 0.0000000000000000e+00 0.0000000000000000e+00  0.0000000000000000e+00 0.0000000000000000e+00 0.0000000000000000e+00  0.0000000000000000e+00 0.0000000000000000e+00 0.0000000000000000e+00  0.0000000000000000e+00 0.0000000000000000e+00 0.0000000000000000e+00  0.0000000000000000e+00 0.0000000000000000e+00 0.0000000000000000e+00  0.0000000000000000e+00 0.0000000000000000e+00 0.0000000000000000e+00  0.0000000000000000e+00 0.0000000000000000e+00 0.0000000000000000e+00  0.0000000000000000e+00 0.0000000000000000e+00 0.0000000000000000e+00  0.0000000000000000e+00 0.0000000000000000e+00 0.0000000000000000e+00  0.0000000000000000e+00 0.0000000000000000e+00 0.0000000000000000e+00  0.0000000000000000e+00 0.0000000000000000e+00 0.0000000000000000e+00  0.0000000000000000e+00 0.0000000000000000e+00 0.0000000000000000e+00  0.0000000000000000e+00 0.0000000000000000e+00 0.0000000000000000e+00  0.0000000000000000e+00 0.0000000000000000e+00 0.0000000000000000e+00  0.0000000000000000e+00 0.0000000000000000e+00 0.0000000000000000e+00  0.0000000000000000e+00 0.0000000000000000e+00 0.0000000000000000e+00  0.0000000000000000e+00 0.0000000000000000e+00 0.0000000000000000e+00  0.0000000000000000e+00 0.0000000000000000e+00 0.0000000000000000e+00  0.0000000000000000e+00 0.0000000000000000e+00 0.0000000000000000e+00  0.0000000000000000e+00 0.0000000000000000e+00 0.0000000000000000e+00  0.0000000000000000e+00 0.0000000000000000e+00 0.0000000000000000e+00  0.0000000000000000e+00 0.0000000000000000e+00 0.0000000000000000e+00  0.0000000000000000e+00 0.0000000000000000e+00 0.0000000000000000e+00  0.0000000000000000e+00 0.0000000000000000e+00 0.0000000000000000e+00  0.0000000000000000e+00 0.0000000000000000e+00 0.0000000000000000e+00  0.0000000000000000e+00 0.0000000000000000e+00 0.0000000000000000e+00  0.0000000000000000e+00 0.0000000000000000e+00 0.0000000000000000e+00  0.0000000000000000e+00 0.0000000000000000e+00 0.0000000000000000e+00  0.0000000000000000e+00 0.0000000000000000e+00 0.0000000000000000e+00  0.0000000000000000e+00 0.0000000000000000e+00 0.0000000000000000e+00  0.0000000000000000e+00 0.0000000000000000e+00 0.0000000000000000e+00  0.0000000000000000e+00 0.0000000000000000e+00 0.0000000000000000e+00  0.0000000000000000e+00 0.0000000000000000e+00 0.0000000000000000e+00  0.0000000000000000e+00 0.0000000000000000e+00 0.0000000000000000e+00  0.0000000000000000e+00 0.0000000000000000e+00 0.0000000000000000e+00  0.0000000000000000e+00 0.0000000000000000e+00 0.0000000000000000e+00  0.0000000000000000e+00 0.0000000000000000e+00 0.0000000000000000e+00  0.0000000000000000e+00 0.0000000000000000e+00 0.0000000000000000e+00  0.0000000000000000e+00 0.0000000000000000e+00 0.0000000000000000e+00  0.0000000000000000e+00 0.0000000000000000e+00 0.0000000000000000e+00  0.0000000000000000e+00 0.0000000000000000e+00 0.0000000000000000e+00  0.0000000000000000e+00 0.0000000000000000e+00 0.0000000000000000e+00  0.0000000000000000e+00 0.0000000000000000e+00 0.0000000000000000e+00  0.0000000000000000e+00 0.0000000000000000e+00 0.0000000000000000e+00  0.0000000000000000e+00 0.0000000000000000e+00 0.0000000000000000e+00  0.0000000000000000e+00 0.0000000000000000e+00 0.0000000000000000e+00  0.0000000000000000e+00 0.0000000000000000e+00 0.0000000000000000e+00  0.0000000000000000e+00 0.0000000000000000e+00 0.0000000000000000e+00  0.0000000000000000e+00 0.0000000000000000e+00 0.0000000000000000e+00  0.0000000000000000e+00 0.0000000000000000e+00 0.0000000000000000e+00  0.0000000000000000e+00 0.0000000000000000e+00 0.0000000000000000e+00  0.0000000000000000e+00 0.0000000000000000e+00 0.0000000000000000e+00  0.0000000000000000e+00 0.0000000000000000e+00 0.0000000000000000e+00  0.0000000000000000e+00 0.0000000000000000e+00 0.0000000000000000e+00  0.0000000000000000e+00 0.0000000000000000e+00 0.0000000000000000e+00  0.0000000000000000e+00 0.0000000000000000e+00 0.0000000000000000e+00  0.0000000000000000e+00 0.0000000000000000e+00 0.0000000000000000e+00  0.0000000000000000e+00 0.0000000000000000e+00 0.0000000000000000e+00  0.0000000000000000e+00 0.0000000000000000e+00 0.0000000000000000e+00  0.0000000000000000e+00 0.0000000000000000e+00 0.0000000000000000e+00  0.0000000000000000e+00 0.0000000000000000e+00 0.0000000000000000e+00  0.0000000000000000e+00 0.0000000000000000e+00 0.0000000000000000e+00  0.0000000000000000e+00 0.0000000000000000e+00 0.0000000000000000e+00  0.0000000000000000e+00 0.0000000000000000e+00 0.0000000000000000e+00  0.0000000000000000e+00 0.0000000000000000e+00 0.0000000000000000e+00  0.0000000000000000e+00 0.0000000000000000e+00 0.0000000000000000e+00  0.0000000000000000e+00 0.0000000000000000e+00 0.0000000000000000e+00  0.0000000000000000e+00 0.0000000000000000e+00 0.0000000000000000e+00  0.0000000000000000e+00 0.0000000000000000e+00 0.0000000000000000e+00  0.0000000000000000e+00 0.0000000000000000e+00 0.0000000000000000e+00  0.0000000000000000e+00 0.0000000000000000e+00 0.0000000000000000e+00  0.0000000000000000e+00 0.0000000000000000e+00 0.0000000000000000e+00  7.3075166159764199e-02 2.0568273735460138e-01 0.0000000000000000e+00  5.7671264224770633e-02 1.5016597557873587e-01 0.0000000000000000e+00  5.0126755771171344e-02 7.6392082215270052e-02 0.0000000000000000e+00  2.8167338773604798e-02 -3.2280105888942935e-03 0.0000000000000000e+00  2.0211978156642295e-02 -3.6023894566188652e-02 0.0000000000000000e+00  2.2209351034048187e-02 -9.4221969888313897e-02 0.0000000000000000e+00  2.4349539602237610e-02 -1.1964809113607053e-01 0.0000000000000000e+00  -5.1260619554707133e-03 -1.3539593373821782e-01 0.0000000000000000e+00  3.1050663729438842e-02 -1.3201854498510956e-01 0.0000000000000000e+00  -5.2092502497468850e-03 -1.4176838415279872e-01 0.0000000000000000e+00  3.0225278145152107e-02 -1.4602920555887094e-01 0.0000000000000000e+00  -4.8628759549349827e-03 -1.4587059971491798e-01 0.0000000000000000e+00  3.3375773766829299e-02 -1.5439933508970866e-01 0.0000000000000000e+00  2.9663434621363992e-03 -1.4798064196240093e-01 0.0000000000000000e+00  -9.5427474418938510e-04 -1.3944198110059011e-01 0.0000000000000000e+00  1.2875549906989307e-02 -1.2321107285571434e-01 0.0000000000000000e+00  -3.5209402927047838e-03 -1.2926041190154958e-01 0.0000000000000000e+00  1.3102565054916861e-02 -1.2040424474148796e-01 0.0000000000000000e+00  -7.0392831809391165e-03 -1.2174447762345576e-01 0.0000000000000000e+00  1.5734302002110991e-02 -1.2109418309382572e-01 0.0000000000000000e+00  -1.2325069843285220e-02 -1.2094989430925401e-01 0.0000000000000000e+00  2.1674793221248795e-02 -1.2485047443224843e-01 0.0000000000000000e+00  -7.5660191382733756e-03 -1.2402162503716417e-01 0.0000000000000000e+00  -1.3175391657847866e-02 -1.2743529457708597e-01 0.0000000000000000e+00  3.0309887380951285e-03 -1.3259833119279479e-01 0.0000000000000000e+00  -1.0055142117587091e-02 -1.3506425717982551e-01 0.0000000000000000e+00  2.2355638901600692e-03 -1.4257947305145249e-01 0.0000000000000000e+00  -1.8222330088700091e-02 -1.5109146181189256e-01 0.0000000000000000e+00  1.1285788155059621e-02 -1.5430900786495522e-01 0.0000000000000000e+00  -2.6106170470743754e-02 -1.5873262576609545e-01 0.0000000000000000e+00  1.3633532595557106e-02 -1.6874411723926247e-01 0.0000000000000000e+00  -2.4588349385666366e-02 -1.6946449129364943e-01 0.0000000000000000e+00  9.1835980001270384e-03 -1.9625580505741749e-01 0.0000000000000000e+00  -2.3995203679918180e-02 -1.9943353780101261e-01 0.0000000000000000e+00  1.1642753432127938e-02 -1.9396097118927833e-01 0.0000000000000000e+00  -2.9034934737269803e-02 -1.8832147633513951e-01 0.0000000000000000e+00  1.7176889999941321e-02 -1.9908988530395152e-01 0.0000000000000000e+00  -3.2894333654674646e-02 -2.1773400183046579e-01 0.0000000000000000e+00  2.4160633915251747e-02 -2.2798008805906253e-01 0.0000000000000000e+00  -2.5142756494036286e-02 -2.1039134491206721e-01 0.0000000000000000e+00  2.5813849322109849e-02 -2.1836490123049951e-01 0.0000000000000000e+00  5.7870889292740545e-03 -2.0981232896652016e-01 0.0000000000000000e+00  -1.9501554627906613e-02 -1.9413479339376682e-01 0.0000000000000000e+00  3.2880440049357376e-02 -1.6047855191709304e-01 0.0000000000000000e+00  4.2664427951820318e-04 -1.8071235775770433e-01 0.0000000000000000e+00  6.1752516298911653e-02 -1.4294333360173733e-01 0.0000000000000000e+00  6.2052568980868382e-02 -1.0591934662685813e-01 0.0000000000000000e+00  -2.0302895344704346e-02 -8.6231579694268617e-02 0.0000000000000000e+00  -5.0888903576782659e-03 -1.1169890308802459e-01 0.0000000000000000e+00  3.7472312010980516e-02 -1.5394686207921882e-01 0.0000000000000000e+00  -3.0870633698393160e-03 -1.6662242836493113e-01 0.0000000000000000e+00  3.6994034437967935e-02 -1.9851399545520210e-01 0.0000000000000000e+00  1.3136566761432484e-02 -1.9166028110733246e-01 0.0000000000000000e+00  -2.1977965559712421e-02 -2.0855998154791142e-01 0.0000000000000000e+00  3.3950364693893918e-02 -1.9548625708980716e-01 0.0000000000000000e+00  -2.3519167875071825e-02 -1.9881396585069050e-01 0.0000000000000000e+00  2.9732473055497595e-02 -1.9920160544900756e-01 0.0000000000000000e+00  -2.3813342215916748e-02 -1.9759659867565363e-01 0.0000000000000000e+00  2.4015573871354150e-02 -1.8869786084968723e-01 0.0000000000000000e+00  -2.3916327105158799e-02 -1.8221592038325898e-01 0.0000000000000000e+00  2.2354179398598534e-02 -1.7129516596178559e-01 0.0000000000000000e+00  -2.4972792034016766e-02 -1.6664571005149562e-01 0.0000000000000000e+00  1.7995836656154916e-02 -1.6142144211009046e-01 0.0000000000000000e+00  -2.3102656760390094e-02 -1.5775536218197667e-01 0.0000000000000000e+00  1.5380700787261390e-02 -1.5022005935581562e-01 0.0000000000000000e+00  -2.2309366260378990e-02 -1.4365816723910427e-01 0.0000000000000000e+00  1.4116728493122729e-02 -1.3406055680227011e-01 0.0000000000000000e+00  -2.1021889891213549e-02 -1.3056109106511724e-01 0.0000000000000000e+00  1.3316690796998888e-02 -1.2841574937324660e-01 0.0000000000000000e+00  -1.8795997248245998e-02 -1.2464954277150098e-01 0.0000000000000000e+00  1.3768844722358779e-02 -1.2810832005339307e-01 0.0000000000000000e+00  -6.8408280096431268e-03 -1.2342201550101575e-01 0.0000000000000000e+00  -1.6968701190223694e-02 -1.2492935864179602e-01 0.0000000000000000e+00  3.5250997156830795e-03 -1.1716404801776531e-01 0.0000000000000000e+00  -1.5003549265899946e-02 -1.2461038728693803e-01 0.0000000000000000e+00  5.5699903577566276e-03 -1.2961284735167619e-01 0.0000000000000000e+00  -1.4131336863963350e-02 -1.3208581547933773e-01 0.0000000000000000e+00  5.6907015346992253e-03 -1.3411585799206119e-01 0.0000000000000000e+00  -1.3082473148591995e-02 -1.3065424540620765e-01 0.0000000000000000e+00  7.5650554558084858e-03 -1.3968336317260138e-01 0.0000000000000000e+00  -4.0989138757481913e-06 -1.4467760103031430e-01 0.0000000000000000e+00  -3.1993292659268743e-02 -1.5473477239212668e-01 0.0000000000000000e+00  7.8484567075649669e-03 -1.4705446037237269e-01 0.0000000000000000e+00  -3.4005893179598005e-02 -1.4947312848732772e-01 0.0000000000000000e+00  6.1698840933500573e-03 -1.4533353574242314e-01 0.0000000000000000e+00  -3.5611611449279428e-02 -1.3756039602051282e-01 0.0000000000000000e+00  3.9682753670587665e-03 -1.3320953691775717e-01 0.0000000000000000e+00  -2.7171413098508852e-02 -1.1608799660101847e-01 0.0000000000000000e+00  -2.9724996359832879e-02 -9.4993759213292145e-02 0.0000000000000000e+00  -2.5576877326976721e-02 -4.1486461010464097e-02 0.0000000000000000e+00  -2.9187057677779786e-02 -8.5176462268809847e-03 0.0000000000000000e+00  -4.8630474672851594e-02 7.1187028891118789e-02 0.0000000000000000e+00  -6.3372897585337429e-02 1.5547635166470922e-01 0.0000000000000000e+00  -8.0992996528803901e-02 2.0979310702212922e-01 0.0000000000000000e+00  -3.0958047977099543e-03 -8.9170988417773475e-02 0.0000000000000000e+00  -5.5080627517876306e-03 9.8145306581048392e-02 0.0000000000000000e+00  -1.2358454828887940e-03 1.3851448208733019e-01 0.0000000000000000e+00  6.6874690667963537e-03 1.6652934879638340e-01 0.0000000000000000e+00  -2.4842505536768452e-03 -2.7236169545627961e-02 0.0000000000000000e+00  4.8587164402881023e-04 1.6598255949729127e-01 0.0000000000000000e+00  2.1314914612139634e-03 4.4430503033009265e-02 0.0000000000000000e+00  4.0154784137980994e-04 1.5615610967613253e-01 0.0000000000000000e+00  3.6051051611934886e-03 1.0798575938015127e-01 0.0000000000000000e+00  6.7256697295069547e-04 1.1594731146396572e-01 0.0000000000000000e+00  -2.4492804473273243e-03 1.4789699804410239e-01 0.0000000000000000e+00  3.2968504024298100e-03 1.0777568530764853e-01 0.0000000000000000e+00  -7.3742961850746579e-04 1.2524303928427269e-01 0.0000000000000000e+00  -2.9011543311651599e-03 1.1299948420285670e-01 0.0000000000000000e+00  1.3571096770533219e-04 1.0250754850591734e-01 0.0000000000000000e+00  -1.1185403379082458e-03 1.1599631136045331e-01 0.0000000000000000e+00  7.2641655168532884e-04 1.3733593155424939e-01 0.0000000000000000e+00  -1.7879707363927808e-03 9.9424956346250579e-02 0.0000000000000000e+00  -4.2154896280453667e-05 1.0709488488581984e-01 0.0000000000000000e+00  -8.2206028518595168e-04 9.5882459761884975e-02 0.0000000000000000e+00  -3.2382461794932173e-03 1.0078619769626834e-01 0.0000000000000000e+00  1.4500628846356156e-03 8.0618714597150878e-02 0.0000000000000000e+00  -7.2559580472049141e-04 9.2174144396192106e-02 0.0000000000000000e+00  -2.0699321622240992e-03 1.3834617528141704e-01 0.0000000000000000e+00  1.6278358515164984e-03 7.5833025975035162e-02 0.0000000000000000e+00  1.0094013650950424e-02 1.0326184318480860e-01 0.0000000000000000e+00  -2.9119118288299276e-02 -6.5007804329805019e-02 0.0000000000000000e+00  -3.6532789215975715e-03 1.1091343542462438e-01 0.0000000000000000e+00  -5.9554004612571952e-03 1.1964476775539390e-01 0.0000000000000000e+00  2.1266657763309146e-02 2.2418307200788603e-02 0.0000000000000000e+00  -3.3423256281240230e-03 8.0258428668837145e-02 0.0000000000000000e+00  -3.3900001673304245e-03 8.9724984052580919e-02 0.0000000000000000e+00  -1.5203596194181511e-03 1.0358138034531365e-01 0.0000000000000000e+00  -5.8123850716516462e-03 7.3694887049150046e-02 0.0000000000000000e+00  -6.9028817353941185e-04 8.1873124320472349e-02 0.0000000000000000e+00  -6.2305487711624287e-04 7.9354200863068089e-02 0.0000000000000000e+00  -1.8266703048882118e-03 7.2063053466503449e-02 0.0000000000000000e+00  -1.3840862627974165e-03 7.8709320500861060e-02 0.0000000000000000e+00  -2.6927208225682410e-03 1.0234754955747651e-01 0.0000000000000000e+00  1.3433001703891194e-03 7.6054477854333905e-02 0.0000000000000000e+00  8.9638044593505842e-04 7.0032252792685129e-02 0.0000000000000000e+00  -2.0884011773997010e-02 -1.0752804076707105e-01 0.0000000000000000e+00  2.0286442483108538e-02 -1.0348070838019353e-01 0.0000000000000000e+00  -4.6822165645118319e-02 6.9382446060717654e-02 0.0000000000000000e+00  2.4011905789384780e-02 -6.6037376923121893e-02