<?xml version="1.0"?>
<VTKFile type="UnstructuredGrid"  version="0.1"  >
<UnstructuredGrid>
<Piece  NumberOfPoints="1419" NumberOfCells="2698">
<Points>
<DataArray  type="Float64"  NumberOfComponents="3"  format="ascii">2.224361631100765e-08 -1.547870800039094e-06 0  4.050343263721575e-08 0.4099984452874584 0  2.500000074098709 -2.285086111622023e-06 0  2.500000074098725 0.4099977149139073 0  0.6000000816653787 0.1899976416215594 0  0.6000000968069311 0.209997642640298 0  0.25 0.2 0  0.1500000307426634 0.1999984630685497 0  0.2489897948556636 0.21 0  0.2489897948556636 0.19 0  0.6000000927876623 0.1999976332201641 0  4.029188033062634e-08 0.3807127314646999 0  3.969000759837221e-08 0.3514270184382533 0  3.868151966671007e-08 0.322141306021236 0  3.727160780075142e-08 0.2928555938103296 0  3.55340465832521e-08 0.2635698814951883 0  3.353713600300205e-08 0.2342841688680192 0  3.136420930041829e-08 0.2049984556171157 0  2.919064323261614e-08 0.1757127417949921 0  2.717353914536361e-08 0.1464270273430736 0  2.541136015395582e-08 0.1171413123786332 0  2.403973204877313e-08 0.0878555970913136 0  2.303062505655265e-08 0.05856988175900894 0  2.243348700402522e-08 0.0292841666884365 0  0.0301544596463475 -1.548178783654547e-06 0  0.06140004125530265 -1.549294849993311e-06 0  0.0937762610256387 -1.551826839368425e-06 0  0.1273240144152785 -1.556836761826189e-06 0  0.1620857027624279 -1.566233485888838e-06 0  0.1981052580465955 -1.584704445799357e-06 0  0.235428197291401 -1.619275526551169e-06 0  0.2741016704349997 -1.674515689991638e-06 0  0.3141745661280294 -1.751120124625964e-06 0  0.3556975100854142 -1.846155400668425e-06 0  0.3987229772498933 -1.948261037869649e-06 0  0.4433053359676447 -2.045491065279936e-06 0  0.4895009150971838 -2.1299470788061e-06 0  0.5373681090598783 -2.19473347012843e-06 0  0.5869673904728333 -2.237883348362646e-06 0  0.6383614302290732 -2.264029892159173e-06 0  0.6916151808018061 -2.276849582583096e-06 0  0.7467959292917712 -2.282447266397943e-06 0  0.8039734178559582 -2.284702332983005e-06 0  0.863219886464941 -2.285433342706907e-06 0  0.9246102058414115 -2.285544817167903e-06 0  0.9882219546194553 -2.28545463177908e-06 0  1.054135519321575 -2.285344878274844e-06 0  1.122434174440957 -2.285253289029231e-06 0  1.193204251125556 -2.28518682574638e-06 0  1.266535163914217 -2.285144382951033e-06 0  1.342519590109117 -2.285119383726714e-06 0  1.421253522582867 -2.285104569384597e-06 0  1.502836463194578 -2.285095873215784e-06 0  1.587371513852154 -2.285091188104164e-06 0  1.674965492873328 -2.28508870770293e-06 0  1.765729075922899 -2.285087387360145e-06 0  1.859776982978125 -2.285086738200205e-06 0  1.957228051585466 -2.285086397789081e-06 0  2.058205403968512 -2.285086242812121e-06 0  2.162836665288603 -2.285086163718452e-06 0  2.271254031389551 -2.285086130202683e-06 0  2.383594520902127 -2.285086115859033e-06 0  2.500000074098709 0.1024977149136523 0  2.500000074098717 0.204997714913372 0  2.500000074098724 0.3074977149136228 0  2.383594520902387 0.4099977149139115 0  2.271254031390061 0.4099977149139262 0  2.162836665289383 0.4099977149139613 0  2.05820540396964 0.4099977149140367 0  1.957228051587093 0.4099977149141901 0  1.85977698298065 0.4099977149145472 0  1.765729075926942 0.4099977149151942 0  1.674965492880357 0.4099977149165695 0  1.587371513864571 0.4099977149190576 0  1.502836463217088 0.4099977149237976 0  1.421253522624386 0.4099977149329617 0  1.342519590182899 0.4099977149485354 0  1.266535164043399 0.4099977149757809 0  1.19320425135399 0.4099977150271275 0  1.122434174836916 0.4099977151193006 0  1.054135519977065 0.409997715273609 0  0.9882219557147168 0.4099977155797972 0  0.9246102076094579 0.4099977161430701 0  0.8632198892965636 0.4099977172238343 0  0.8039734222892688 0.4099977193902243 0  0.7467959360888486 0.4099977237456561 0  0.6916151908689793 0.4099977322539857 0  0.6383614446336082 0.4099977488798167 0  0.5869674103044481 0.4099977776007436 0  0.5373681348909751 0.4099978222818986 0  0.489500947111402 0.4099978864005079 0  0.4433053737916478 0.4099979669001573 0  0.3987230196628125 0.4099980583086124 0  0.3556975551130976 0.4099981530523085 0  0.3141746114760567 0.4099982414515679 0  0.2741017136066407 0.4099983147074375 0  0.2354282366893583 0.409998367252136 0  0.1981052927378545 0.4099984017424865 0  0.1620857326510908 0.4099984219593454 0  0.1273240400711962 0.4099984332278828 0  0.09377628334129684 0.4099984397192644 0  0.06140006125658592 0.4099984430947747 0  0.0301544782993866 0.4099984448491329 0  0.2497468076502589 0.2050254481002335 0  0.2497468076502614 0.1949745518997913 0  0.2469965156510632 0.1829309556561432 0  0.2439893656581573 0.1762306187628149 0  0.2400332098513455 0.1700431605121978 0  0.2352133954471959 0.1645020102037449 0  0.2296339027749924 0.1597266787819894 0  0.2234151013153425 0.1558201770271899 0  0.2166911527727418 0.1528667748225141 0  0.2096071166585397 0.150930183132794 0  0.2023158210031681 0.1500521763362809 0  0.1949745649184116 0.1502516954665797 0  0.1877417255451403 0.1515244335870028 0  0.1807733409266582 0.1538429325083444 0  0.1742197440126082 0.1571571726460828 0  0.1682223191626913 0.1613956536753123 0  0.1629104522679874 0.1664669357526199 0  0.1583987391530562 0.1722616131110299 0  0.1547845136089844 0.1786546735981269 0  0.1521457473082212 0.1855081960760509 0  0.1505393679269222 0.1926743255290818 0  0.1505393712578716 0.2073226009703641 0  0.1521457540025356 0.214488731558937 0  0.1547845235962038 0.2213422560047692 0  0.1583987524867933 0.227735319538478 0  0.1629104688974223 0.2335300012194525 0  0.168222339154303 0.2386012895320939 0  0.1742197672989885 0.2428397789469665 0  0.1807733675684871 0.2461540307164328 0  0.1877417555343649 0.2484725456212565 0  0.1949745982787555 0.2497453057607688 0  0.2023158576980069 0.2499448539849225 0  0.2096071567641623 0.2490668877761519 0  0.2166911961779046 0.2471303494761821 0  0.2234151480019036 0.2441770218042353 0  0.2296339525834812 0.2402706210625459 0  0.2352134479617377 0.2354954323289587 0  0.240033264213117 0.2299544814147365 0  0.2439894194516047 0.2237673372842314 0  0.2469965621105144 0.2170675374419204 0  0.2564581430420658 0.2099992668158652 0  0.2639264571158162 0.2099990193308102 0  0.2713947695674772 0.2099988583415373 0  0.278863071415886 0.2099987335517384 0  0.2863313751242888 0.2099986294737208 0  0.2937996774812927 0.2099985380384025 0  0.3012679797474322 0.2099984551316801 0  0.3087362809924939 0.2099983911218564 0  0.316204587331282 0.2099983304753567 0  0.323672887736436 0.209998274387748 0  0.3311411949856981 0.2099982232544381 0  0.3386094946551336 0.2099981761718214 0  0.3460778009571719 0.209998130651297 0  0.3535461013537246 0.209998081171934 0  0.3610144014525318 0.2099980564084233 0  0.3684827061522714 0.2099980273138474 0  0.3759510039752234 0.2099979965559549 0  0.3834193080999828 0.209997967858169 0  0.390887605445827 0.2099979398611803 0  0.3983559094936545 0.2099979134020963 0  0.405824206220291 0.2099978868584474 0  0.4132925096440946 0.2099978586525579 0  0.4207608063572508 0.2099978240097648 0  0.4282291053955061 0.2099978110765983 0  0.4356974092005154 0.2099977923998815 0  0.4431657079280654 0.2099977721699876 0  0.4506340127577428 0.2099977514413433 0  0.4581023118261424 0.2099977319939039 0  0.4655706179706445 0.2099977133959625 0  0.4730389172696062 0.2099976957892035 0  0.4805072246274061 0.2099976787842137 0  0.4879755251196378 0.2099976631915574 0  0.4954438345235969 0.2099976466514496 0  0.5029121356972992 0.2099976343023644 0  0.5103804455109513 0.2099976253467154 0  0.5178487471624871 0.2099976170155307 0  0.5253170584860011 0.2099976082680689 0  0.5327853605306507 0.2099975996764961 0  0.5402536721569801 0.2099975937411509 0  0.5477219750481739 0.2099975908430532 0  0.5551902869316671 0.2099975859606031 0  0.5626585911033348 0.209997574520098 0  0.5701268917323122 0.2099975949264964 0  0.5775952000097369 0.2099976082877424 0  0.5850634996687711 0.2099976151075733 0  0.5925318023770421 0.2099976277113631 0  0.6000000981974541 0.2049976358070385 0  0.6000000848411029 0.1949976376903199 0  0.5925317787883592 0.1899976269798551 0  0.5850634799562396 0.189997610674274 0  0.5775951725700168 0.1899975967436441 0  0.5701268720359055 0.1899975832480625 0  0.5626585654275675 0.1899975641995761 0  0.5551902567259097 0.1899975721565597 0  0.5477219560100135 0.1899975731271682 0  0.5402536449978687 0.1899975745125183 0  0.5327853444630325 0.1899975783739409 0  0.5253170322457108 0.1899975843395354 0  0.5178487301044361 0.1899975919846816 0  0.5103804185025128 0.1899976008431015 0  0.5029121178109403 0.1899976111242714 0  0.4954438062606405 0.1899976238419667 0  0.48797550558973 0.189997638862079 0  0.4805071946474483 0.1899976556215752 0  0.4730388929898603 0.1899976733724441 0  0.4655705827851275 0.1899976923521333 0  0.4581022825511076 0.1899977122859858 0  0.4506339739093462 0.1899977334259226 0  0.4431656736913828 0.1899977555015496 0  0.4356973650636285 0.1899977782116632 0  0.4282290635779781 0.1899978000078471 0  0.4207607563800617 0.1899978162052287 0  0.41329245064357 0.1899978518874828 0  0.4058241503039383 0.1899978832394996 0  0.398355844073619 0.1899979117530818 0  0.3908875429177714 0.1899979407883443 0  0.3834192363488872 0.1899979701527753 0  0.3759509347196626 0.1899980002229378 0  0.368482628367637 0.1899980313016951 0  0.3610143275801501 0.1899980607407055 0  0.3535460211411214 0.1899980873015353 0  0.3460777134799732 0.189998136620658 0  0.3386094116470854 0.1899981836446922 0  0.3311411041273042 0.1899982312466886 0  0.3236728034368559 0.1899982823093533 0  0.3162044975448273 0.1899983380900479 0  0.3087361972971446 0.1899983975310017 0  0.3012678922210671 0.1899984607708687 0  0.2937995893180067 0.1899985428060118 0  0.2863312864019229 0.1899986335686381 0  0.2788629841636158 0.1899987368884569 0  0.2713946761345724 0.189998862861668 0  0.2639263753221665 0.1899990273596142 0  0.256458074591502 0.189999271759
[...]
<PointData  Vectors="f_30-0"> 
<DataArray  type="Float64"  Name="f_30-0"  NumberOfComponents="3" format="ascii">0.0000000000000000e+00 0.0000000000000000e+00 0.0000000000000000e+00  0.0000000000000000e+00 0.0000000000000000e+00 0.0000000000000000e+00  0.0000000000000000e+00 0.0000000000000000e+00 0.0000000000000000e+00  0.0000000000000000e+00 0.0000000000000000e+00 0.0000000000000000e+00  1.7802868174078813e-02 -7.4459502887439813e-02 0.0000000000000000e+00  4.7107816277827279e-02 -6.7450019762552951e-02 0.0000000000000000e+00  0.0000000000000000e+00 0.0000000000000000e+00 0.0000000000000000e+00  0.0000000000000000e+00 0.0000000000000000e+00 0.0000000000000000e+00  0.0000000000000000e+00 0.0000000000000000e+00 0.0000000000000000e+00  0.0000000000000000e+00 0.0000000000000000e+00 0.0000000000000000e+00  8.4895591934528877e-02 -1.6634286103286075e-01 0.0000000000000000e+00  0.0000000000000000e+00 0.0000000000000000e+00 0.0000000000000000e+00  0.0000000000000000e+00 0.0000000000000000e+00 0.0000000000000000e+00  0.0000000000000000e+00 0.0000000000000000e+00 0.0000000000000000e+00  0.0000000000000000e+00 0.0000000000000000e+00 0.0000000000000000e+00  0.0000000000000000e+00 0.0000000000000000e+00 0.0000000000000000e+00  0.0000000000000000e+00 0.0000000000000000e+00 0.0000000000000000e+00  0.0000000000000000e+00 0.0000000000000000e+00 0.0000000000000000e+00  0.0000000000000000e+00 0.0000000000000000e+00 0.0000000000000000e+00  0.0000000000000000e+00 0.0000000000000000e+00 0.0000000000000000e+00  0.0000000000000000e+00 0.0000000000000000e+00 0.0000000000000000e+00  0.0000000000000000e+00 0.0000000000000000e+00 0.0000000000000000e+00  0.0000000000000000e+00 0.0000000000000000e+00 0.0000000000000000e+00  0.0000000000000000e+00 0.0000000000000000e+00 0.0000000000000000e+00  0.0000000000000000e+00 0.0000000000000000e+00 0.0000000000000000e+00  0.0000000000000000e+00 0.0000000000000000e+00 0.0000000000000000e+00  0.0000000000000000e+00 0.0000000000000000e+00 0.0000000000000000e+00  0.0000000000000000e+00 0.0000000000000000e+00 0.0000000000000000e+00  0.0000000000000000e+00 0.0000000000000000e+00 0.0000000000000000e+00  0.0000000000000000e+00 0.0000000000000000e+00 0.0000000000000000e+00  0.0000000000000000e+00 0.0000000000000000e+00 0.0000000000000000e+00  0.0000000000000000e+00 0.0000000000000000e+00 0.0000000000000000e+00  0.0000000000000000e+00 0.0000000000000000e+00 0.0000000000000000e+00  0.0000000000000000e+00 0.0000000000000000e+00 0.0000000000000000e+00  0.0000000000000000e+00 0.0000000000000000e+00 0.0000000000000000e+00  0.0000000000000000e+00 0.0000000000000000e+00 0.0000000000000000e+00  0.0000000000000000e+00 0.0000000000000000e+00 0.0000000000000000e+00  0.0000000000000000e+00 0.0000000000000000e+00 0.0000000000000000e+00  0.0000000000000000e+00 0.0000000000000000e+00 0.0000000000000000e+00  0.0000000000000000e+00 0.0000000000000000e+00 0.0000000000000000e+00  0.0000000000000000e+00 0.0000000000000000e+00 0.0000000000000000e+00  0.0000000000000000e+00 0.0000000000000000e+00 0.0000000000000000e+00  0.0000000000000000e+00 0.0000000000000000e+00 0.0000000000000000e+00  0.0000000000000000e+00 0.0000000000000000e+00 0.0000000000000000e+00  0.0000000000000000e+00 0.0000000000000000e+00 0.0000000000000000e+00  0.0000000000000000e+00 0.0000000000000000e+00 0.0000000000000000e+00  0.0000000000000000e+00 0.0000000000000000e+00 0.0000000000000000e+00  0.0000000000000000e+00 0.0000000000000000e+00 0.0000000000000000e+00  0.0000000000000000e+00 0.0000000000000000e+00 0.0000000000000000e+00  0.0000000000000000e+00 0.0000000000000000e+00 0.0000000000000000e+00  0.0000000000000000e+00 0.0000000000000000e+00 0.0000000000000000e+00  0.0000000000000000e+00 0.0000000000000000e+00 0.0000000000000000e+00  0.0000000000000000e+00 0.0000000000000000e+00 0.0000000000000000e+00  0.0000000000000000e+00 0.0000000000000000e+00 0.0000000000000000e+00  0.0000000000000000e+00 0.0000000000000000e+00 0.0000000000000000e+00  0.0000000000000000e+00 0.0000000000000000e+00 0.0000000000000000e+00  0.0000000000000000e+00 0.0000000000000000e+00 0.0000000000000000e+00  0.0000000000000000e+00 0.0000000000000000e+00 0.0000000000000000e+00  0.0000000000000000e+00 0.0000000000000000e+00 0.0000000000000000e+00  0.0000000000000000e+00 0.0000000000000000e+00 0.0000000000000000e+00  0.0000000000000000e+00 0.0000000000000000e+00 0.0000000000000000e+00  0.0000000000000000e+00 0.0000000000000000e+00 0.0000000000000000e+00  7.1497259580408224e-09 2.3306240076766265e-09 0.0000000000000000e+00  -2.1271693048924111e-10 3.1687426402692284e-09 0.0000000000000000e+00  -7.3854293007620219e-09 2.7773824847407351e-09 0.0000000000000000e+00  0.0000000000000000e+00 0.0000000000000000e+00 0.0000000000000000e+00  0.0000000000000000e+00 0.0000000000000000e+00 0.0000000000000000e+00  0.0000000000000000e+00 0.0000000000000000e+00 0.0000000000000000e+00  0.0000000000000000e+00 0.0000000000000000e+00 0.0000000000000000e+00  0.0000000000000000e+00 0.0000000000000000e+00 0.0000000000000000e+00  0.0000000000000000e+00 0.0000000000000000e+00 0.0000000000000000e+00  0.0000000000000000e+00 0.0000000000000000e+00 0.0000000000000000e+00  0.0000000000000000e+00 0.0000000000000000e+00 0.0000000000000000e+00  0.0000000000000000e+00 0.0000000000000000e+00 0.0000000000000000e+00  0.0000000000000000e+00 0.0000000000000000e+00 0.0000000000000000e+00  0.0000000000000000e+00 0.0000000000000000e+00 0.0000000000000000e+00  0.0000000000000000e+00 0.0000000000000000e+00 0.0000000000000000e+00  0.0000000000000000e+00 0.0000000000000000e+00 0.0000000000000000e+00  0.0000000000000000e+00 0.0000000000000000e+00 0.0000000000000000e+00  0.0000000000000000e+00 0.0000000000000000e+00 0.0000000000000000e+00  0.0000000000000000e+00 0.0000000000000000e+00 0.0000000000000000e+00  0.0000000000000000e+00 0.0000000000000000e+00 0.0000000000000000e+00  0.0000000000000000e+00 0.0000000000000000e+00 0.0000000000000000e+00  0.0000000000000000e+00 0.0000000000000000e+00 0.0000000000000000e+00  0.0000000000000000e+00 0.0000000000000000e+00 0.0000000000000000e+00  0.0000000000000000e+00 0.0000000000000000e+00 0.0000000000000000e+00  0.0000000000000000e+00 0.0000000000000000e+00 0.0000000000000000e+00  0.0000000000000000e+00 0.0000000000000000e+00 0.0000000000000000e+00  0.0000000000000000e+00 0.0000000000000000e+00 0.0000000000000000e+00  0.0000000000000000e+00 0.0000000000000000e+00 0.0000000000000000e+00  0.0000000000000000e+00 0.0000000000000000e+00 0.0000000000000000e+00  0.0000000000000000e+00 0.0000000000000000e+00 0.0000000000000000e+00  0.0000000000000000e+00 0.0000000000000000e+00 0.0000000000000000e+00  0.0000000000000000e+00 0.0000000000000000e+00 0.0000000000000000e+00  0.0000000000000000e+00 0.0000000000000000e+00 0.0000000000000000e+00  0.0000000000000000e+00 0.0000000000000000e+00 0.0000000000000000e+00  0.0000000000000000e+00 0.0000000000000000e+00 0.0000000000000000e+00  0.0000000000000000e+00 0.0000000000000000e+00 0.0000000000000000e+00  0.0000000000000000e+00 0.0000000000000000e+00 0.0000000000000000e+00  0.0000000000000000e+00 0.0000000000000000e+00 0.0000000000000000e+00  0.0000000000000000e+00 0.0000000000000000e+00 0.0000000000000000e+00  0.0000000000000000e+00 0.0000000000000000e+00 0.0000000000000000e+00  0.0000000000000000e+00 0.0000000000000000e+00 0.0000000000000000e+00  0.0000000000000000e+00 0.0000000000000000e+00 0.0000000000000000e+00  0.0000000000000000e+00 0.0000000000000000e+00 0.0000000000000000e+00  0.0000000000000000e+00 0.0000000000000000e+00 0.0000000000000000e+00  0.0000000000000000e+00 0.0000000000000000e+00 0.0000000000000000e+00  0.0000000000000000e+00 0.0000000000000000e+00 0.0000000000000000e+00  0.0000000000000000e+00 0.0000000000000000e+00 0.0000000000000000e+00  0.0000000000000000e+00 0.0000000000000000e+00 0.0000000000000000e+00  0.0000000000000000e+00 0.0000000000000000e+00 0.0000000000000000e+00  0.0000000000000000e+00 0.0000000000000000e+00 0.0000000000000000e+00  0.0000000000000000e+00 0.0000000000000000e+00 0.0000000000000000e+00  0.0000000000000000e+00 0.0000000000000000e+00 0.0000000000000000e+00  0.0000000000000000e+00 0.0000000000000000e+00 0.0000000000000000e+00  0.0000000000000000e+00 0.0000000000000000e+00 0.0000000000000000e+00  0.0000000000000000e+00 0.0000000000000000e+00 0.0000000000000000e+00  0.0000000000000000e+00 0.0000000000000000e+00 0.0000000000000000e+00  0.0000000000000000e+00 0.0000000000000000e+00 0.0000000000000000e+00  0.0000000000000000e+00 0.0000000000000000e+00 0.0000000000000000e+00  0.0000000000000000e+00 0.0000000000000000e+00 0.0000000000000000e+00  0.0000000000000000e+00 0.0000000000000000e+00 0.0000000000000000e+00  0.0000000000000000e+00 0.0000000000000000e+00 0.0000000000000000e+00  0.0000000000000000e+00 0.0000000000000000e+00 0.0000000000000000e+00  0.0000000000000000e+00 0.0000000000000000e+00 0.0000000000000000e+00  0.0000000000000000e+00 0.0000000000000000e+00 0.0000000000000000e+00  0.0000000000000000e+00 0.0000000000000000e+00 0.0000000000000000e+00  0.0000000000000000e+00 0.0000000000000000e+00 0.0000000000000000e+00  0.0000000000000000e+00 0.0000000000000000e+00 0.0000000000000000e+00  0.0000000000000000e+00 0.0000000000000000e+00 0.0000000000000000e+00  0.0000000000000000e+00 0.0000000000000000e+00 0.0000000000000000e+00  0.0000000000000000e+00 0.0000000000000000e+00 0.0000000000000000e+00  0.0000000000000000e+00 0.0000000000000000e+00 0.0000000000000000e+00  0.0000000000000000e+00 0.0000000000000000e+00 0.0000000000000000e+00  0.0000000000000000e+00 0.0000000000000000e+00 0.0000000000000000e+00  0.0000000000000000e+00 0.0000000000000000e+00 0.0000000000000000e+00  0.0000000000000000e+00 0.0000000000000000e+00 0.0000000000000000e+00  0.0000000000000000e+00 0.0000000000000000e+00 0.0000000000000000e+00  0.0000000000000000e+00 0.0000000000000000e+00 0.0000000000000000e+00  0.0000000000000000e+00 0.0000000000000000e+00 0.0000000000000000e+00  0.0000000000000000e+00 0.0000000000000000e+00 0.0000000000000000e+00  0.0000000000000000e+00 0.0000000000000000e+00 0.0000000000000000e+00  0.0000000000000000e+00 0.0000000000000000e+00 0.0000000000000000e+00  1.0884323170523202e-01 3.9105449867812764e-01 0.0000000000000000e+00  8.6999552934573565e-02 3.2936874195540389e-01 0.0000000000000000e+00  1.0960615886478844e-01 2.2466249788353196e-01 0.0000000000000000e+00  4.8989611540943015e-02 9.5032966857415233e-02 0.0000000000000000e+00  4.8130896608904329e-02 2.6903716023940701e-02 0.0000000000000000e+00  2.7525809161598375e-02 -6.9335657166806369e-02 0.0000000000000000e+00  3.8668399435501558e-02 -1.2303275769801880e-01 0.0000000000000000e+00  -9.7272701720945865e-03 -1.6717942021919949e-01 0.0000000000000000e+00  3.9073257917634482e-02 -1.8735253273658983e-01 0.0000000000000000e+00  -1.2098799170717911e-02 -2.0669836194552701e-01 0.0000000000000000e+00  4.2148660005322199e-02 -2.3334660104240726e-01 0.0000000000000000e+00  -1.0011635079953431e-02 -2.3572986417990510e-01 0.0000000000000000e+00  5.5067881793407124e-02 -2.6449285531228051e-01 0.0000000000000000e+00  1.0041131395377864e-02 -2.6945353988164156e-01 0.0000000000000000e+00  3.6382982595487704e-03 -2.5015778697420404e-01 0.0000000000000000e+00  2.8018430510932259e-02 -2.1921632280491346e-01 0.0000000000000000e+00  -2.3525152529822700e-03 -2.3749161668695748e-01 0.0000000000000000e+00  2.5927624205607187e-02 -2.2121798741849813e-01 0.0000000000000000e+00  -1.1835896406635110e-02 -2.2660761507430741e-01 0.0000000000000000e+00  2.8547642090304987e-02 -2.3135916667901352e-01 0.0000000000000000e+00  -2.6410413832092638e-02 -2.3138483655667622e-01 0.0000000000000000e+00  3.7921958388275119e-02 -2.4459329405139490e-01 0.0000000000000000e+00  -2.0913114253931359e-02 -2.5294468336169651e-01 0.0000000000000000e+00  -3.4887150315072758e-02 -2.5373334609413123e-01 0.0000000000000000e+00  -5.6916763568880336e-03 -2.7801655344921589e-01 0.0000000000000000e+00  -3.2168540377959860e-02 -2.7844551776989879e-01 0.0000000000000000e+00  -9.6989176596577499e-03 -3.0493259650711035e-01 0.0000000000000000e+00  -5.0133547192338250e-02 -3.2000977847309442e-01 0.0000000000000000e+00  1.0008699956506380e-02 -3.2674254892010901e-01 0.0000000000000000e+00  -6.4691190256163197e-02 -3.3265270276380521e-01 0.0000000000000000e+00  1.4262816756712725e-02 -3.5358409949303532e-01 0.0000000000000000e+00  -5.8808551614800829e-02 -3.4126084675032203e-01 0.0000000000000000e+00  1.2736554518966062e-02 -4.1709992787479322e-01 0.0000000000000000e+00  -4.3395256657543069e-02 -4.1526764227197915e-01 0.0000000000000000e+00  2.8514651027200820e-02 -3.6421516060675940e-01 0.0000000000000000e+00  -4.4159763276849444e-02 -3.4379003477053588e-01 0.0000000000000000e+00  3.7631402866103267e-02 -3.5159174998138215e-01 0.0000000000000000e+00  -4.4595825823031524e-02 -3.9384331766099717e-01 0.0000000000000000e+00  5.8691624456211872e-02 -3.9928526323854463e-01 0.0000000000000000e+00  -1.6339775026744541e-02 -3.5987957982240948e-01 0.0000000000000000e+00  7.0734582598531159e-02 -3.3981831211860991e-01 0.0000000000000000e+00  3.5088099911228444e-02 -3.3049052935417761e-01 0.0000000000000000e+00  3.4409181086603432e-03 -2.8834948143823247e-01 0.0000000000000000e+00  8.1412177597200708e-02 -2.1855801022397897e-01 0.0000000000000000e+00  4.1000326829171346e-02 -2.8586323095987459e-01 0.0000000000000000e+00  1.4162375684958387e-01 -2.5191640119692865e-01 0.0000000000000000e+00  1.3755264371139422e-01 -1.8340343214943169e-01 0.0000000000000000e+00  -5.5059104337283529e-03 -1.3309608172464207e-01 0.0000000000000000e+00  1.4160238585677835e-02 -1.5716615024452824e-01 0.0000000000000000e+00  7.9826255093878140e-02 -2.1781012474791597e-01 0.0000000000000000e+00  1.3332652828838061e-02 -2.4411514840256279e-01 0.0000000000000000e+00  7.1977245196967132e-02 -2.9648965511778247e-01 0.0000000000000000e+00  3.3232859390039372e-02 -2.9220097592252131e-01 0.0000000000000000e+00  -2.0134269470283878e-02 -3.2628760000574158e-01 0.0000000000000000e+00  7.0842942788918659e-02 -3.2319589696955486e-01 0.0000000000000000e+00  -2.9359418538897997e-02 -3.3727056173406045e-01 0.0000000000000000e+00  5.9735139759854471e-02 -3.4582226675381517e-01 0.0000000000000000e+00  -3.8894468870881854e-02 -3.4644133884593831e-01 0.0000000000000000e+00  4.9557587389784732e-02 -3.4250917749651899e-01 0.0000000000000000e+00  -4.0743691363099591e-02 -3.4206140768204285e-01 0.0000000000000000e+00  4.7499119093927747e-02 -3.4075250656365191e-01 0.0000000000000000e+00  -5.2217068833373119e-02 -3.3748060618759029e-01 0.0000000000000000e+00  3.3068737903564779e-02 -3.2954865587158189e-01 0.0000000000000000e+00  -5.3224849916184279e-02 -3.2076861162629539e-01 0.0000000000000000e+00  2.7317214224637197e-02 -3.0925597674235827e-01 0.0000000000000000e+00  -5.3842256675185343e-02 -2.9766199734150323e-01 0.0000000000000000e+00  2.3123009694180921e-02 -2.8165016677042343e-01 0.0000000000000000e+00  -5.0614788759909164e-02 -2.7262507893159688e-01 0.0000000000000000e+00  2.1780748266994308e-02 -2.6545543378411007e-01 0.0000000000000000e+00  -4.5522759395217618e-02 -2.5495396172981716e-01 0.0000000000000000e+00  2.1993172514553044e-02 -2.5716571077104794e-01 0.0000000000000000e+00  -1.8034279635428276e-02 -2.4512156559925588e-01 0.0000000000000000e+00  -3.8680504835736207e-02 -2.4669295345030842e-01 0.0000000000000000e+00  4.6975391401353735e-03 -2.2596880582560175e-01 0.0000000000000000e+00  -3.2421839812180074e-02 -2.3541480229078918e-01 0.0000000000000000e+00  9.7039449486394681e-03 -2.3874253363168707e-01 0.0000000000000000e+00  -3.0000036139742392e-02 -2.4094694995906696e-01 0.0000000000000000e+00  9.0081663296035456e-03 -2.4136993285352629e-01 0.0000000000000000e+00  -2.6987407629047139e-02 -2.3590816242415627e-01 0.0000000000000000e+00  1.3585269190532545e-02 -2.4906825017035106e-01 0.0000000000000000e+00  -3.6852734498512892e-03 -2.5141260678179622e-01 0.0000000000000000e+00  -5.8530638689084140e-02 -2.6251493148179256e-01 0.0000000000000000e+00  6.1056590452584188e-03 -2.3798152376270026e-01 0.0000000000000000e+00  -6.3263674025700295e-02 -2.3299182301806504e-01 0.0000000000000000e+00  -2.3190642659162109e-03 -2.1256262349110730e-01 0.0000000000000000e+00  -6.2032115889360008e-02 -1.9075208816570893e-01 0.0000000000000000e+00  -6.8062137050617956e-03 -1.6501140334101339e-01 0.0000000000000000e+00  -4.8018256684020273e-02 -1.2510628513995958e-01 0.0000000000000000e+00  -3.5947626027724257e-02 -7.3722243383299108e-02 0.0000000000000000e+00  -4.2867197002568046e-02 1.4931112726296304e-02 0.0000000000000000e+00  -2.3105032434750990e-02 7.2952853203562970e-02 0.0000000000000000e+00  -8.7542424365261801e-02 2.1870022610305345e-01 0.0000000000000000e+00  -1.2083495558612718e-01 3.8633106816456064e-01 0.0000000000000000e+00  -1.4662795421118993e-01 4.0286457123188174e-01 0.0000000000000000e+00  -8.3953298490797839e-03 -2.0931001697349677e-01 0.0000000000000000e+00  -1.1256842057997445e-02 1.4867907868468133e-01 0.0000000000000000e+00  2.0314264987548519e-03 2.0428248357391496e-01 0.0000000000000000e+00  1.0466261810695871e-02 2.7091584124257828e-01 0.0000000000000000e+00  -1.7343482996717591e-02 -1.2586057422869501e-01 0.0000000000000000e+00  4.4547828045481096e-03 2.8886523744943793e-01 0.0000000000000000e+00  5.8070034213130806e-03 4.3884184461399174e-03 0.0000000000000000e+00  3.8295763994519636e-03 2.8050693376164554e-01 0.0000000000000000e+00  4.7989672525554413e-03 1.4206723062219589e-01 0.0000000000000000e+00  3.0620286229228406e-04 1.7553182559478483e-01 0.0000000000000000e+00  -1.1777134257724621e-02 2.8808043986904558e-01 0.0000000000000000e+00  5.2434531001561520e-03 1.9273705028656343e-01 0.0000000000000000e+00  -4.6839094035924216e-03 2.5870835287726995e-01 0.0000000000000000e+00  -3.7753062805704757e-03 1.8644694678053972e-01 0.0000000000000000e+00  7.0396424161315858e-04 1.8715655884745830e-01 0.0000000000000000e+00  -4.8530544516354034e-03 2.4311246634370656e-01 0.0000000000000000e+00  6.1906149958399831e-03 2.8057289153123716e-01 0.0000000000000000e+00  -3.9613315104145693e-03 1.8654975637458693e-01 0.0000000000000000e+00  -1.6694439442629305e-03 2.2339942616392239e-01 0.0000000000000000e+00  -1.1971331709641759e-03 1.8596298848113488e-01 0.0000000000000000e+00  -7.6340923240958017e-03 2.0545930514764091e-01 0.0000000000000000e+00  3.8091390365946531e-03 1.6192181208371600e-01 0.0000000000000000e+00  -1.4451702566538010e-03 1.6332006790414202e-01 0.0000000000000000e+00  -5.8915344869755852e-03 2.1279236498011858e-01 0.0000000000000000e+00  4.6813118410736427e-03 8.1926329254108102e-02 0.0000000000000000e+00  8.7616260656690446e-03 1.4950315286979521e-01 0.0000000000000000e+00  -4.9583131414050040e-02 -1.7834287207468735e-01 0.0000000000000000e+00  -3.2737273701450367e-03 1.9614846795615504e-01 0.0000000000000000e+00  -9.3291518623904134e-03 2.0429323746264996e-01 0.0000000000000000e+00  3.1994330487107120e-02 -2.7137828482578220e-02 0.0000000000000000e+00  5.2974231289422292e-03 1.1573998295527689e-01 0.0000000000000000e+00  -3.3426718546410491e-03 1.8430712764273174e-01 0.0000000000000000e+00  4.6182684388500466e-04 1.9194221635616898e-01 0.0000000000000000e+00  -1.0123600086057062e-02 1.3443139922558867e-01 0.0000000000000000e+00  1.4555531715682488e-03 1.7034257181958717e-01 0.0000000000000000e+00  6.4926725981854496e-03 1.2677492471680674e-01 0.0000000000000000e+00  -2.4722191907833725e-03 1.3355590152989913e-01 0.0000000000000000e+00  -1.0474248014172881e-03 1.6578990300238741e-01 0.0000000000000000e+00  -1.6965635315670891e-03 2.1124525009789877e-01 0.0000000000000000e+00  5.1723187540510364e-03 1.4650000455594436e-01 0.0000000000000000e+00  2.5659359117136747e-03 1.4408943858118653e-01 0.0000000000000000e+00  -3.9565169552834289e-02 -2.1544052594445323e-01 0.0000000000000000e+00  5.8100330781766116e-02 -2.0026798604582929e-01 0.0000000000000000e+00  -8.5072397150644963e-02 1.1081963332575184e-01 0.0000000000000000e+00  2.5065016035692968e-02 -1.7954035696867329e-01 0.00000