<?xml version="1.0"?>
<VTKFile type="UnstructuredGrid"  version="0.1"  >
<UnstructuredGrid>
<Piece  NumberOfPoints="1419" NumberOfCells="2698">
<Points>
<DataArray  type="Float64"  NumberOfComponents="3"  format="ascii">-1.817684525521199e-09 -5.017485051789041e-07 0  3.934438799007038e-09 0.4099994962407581 0  2.500000003028974 -7.331521824902791e-07 0  2.500000003028978 0.4099992668478243 0  0.6000000026892982 0.1899992391236562 0  0.6000000052928305 0.2099992407264896 0  0.25 0.2 0  0.1500000009655546 0.1999995016460648 0  0.2489897948556636 0.21 0  0.2489897948556636 0.19 0  0.6000000044757462 0.1999992359709941 0  3.870828404611941e-09 0.3807137820959282 0  3.68937637523817e-09 0.3514280681932564 0  3.383342574134723e-09 0.3221423544754778 0  2.951084685771167e-09 0.2928566408190743 0  2.413616724846766e-09 0.2635709271292734 0  1.791064192432827e-09 0.2342852133426771 0  1.107619445667156e-09 0.2049994993641033 0  4.196611555682707e-10 0.1757137852102768 0  -2.231087613670499e-10 0.1464280708640832 0  -7.884188452219299e-10 0.1171423563619314 0  -1.231722664165483e-09 0.0878566417625959 0  -1.559997923132944e-09 0.05857092715122013 0  -1.755391511977548e-09 0.02928521262201351 0  0.03015443572040395 -5.018438677685152e-07 0  0.06140001776658968 -5.021890556778028e-07 0  0.0937762382934529 -5.029704267198464e-07 0  0.1273239927345335 -5.045130084682419e-07 0  0.1620856823359919 -5.074000248763587e-07 0  0.1981052388604725 -5.130607823339321e-07 0  0.2354281788976547 -5.236268322173099e-07 0  0.2741016519056459 -5.404601336485144e-07 0  0.3141745461994773 -5.637531998961746e-07 0  0.3556974869478594 -5.926487926856211e-07 0  0.3987229492693827 -6.238506344259353e-07 0  0.4433053016229969 -6.540033708434319e-07 0  0.4895008733570386 -6.80807530771392e-07 0  0.5373680597257402 -7.020127167777067e-07 0  0.5869673343224776 -7.1661198833185e-07 0  0.6383613686490693 -7.256804248200154e-07 0  0.6916151155358722 -7.302112720717635e-07 0  0.7467958617282016 -7.32206356309259e-07 0  0.8039733488733627 -7.33013487416071e-07 0  0.8632198166369324 -7.332756230413853e-07 0  0.9246101355057832 -7.333158570110815e-07 0  0.9882218839929088 -7.332837633497583e-07 0  1.054135448510534 -7.332446028717423e-07 0  1.122434103525334 -7.332118964041423e-07 0  1.193204180143735 -7.33188158111367e-07 0  1.266535092893613 -7.331729978309843e-07 0  1.342519519066991 -7.331640678684855e-07 0  1.421253451528299 -7.331587759621793e-07 0  1.502836392132817 -7.331556695324403e-07 0  1.587371442786553 -7.331539959172784e-07 0  1.674965421805704 -7.331531098660754e-07 0  1.765729004854202 -7.331526382115061e-07 0  1.8597769119089 -7.331524063175925e-07 0  1.957227980515964 -7.331522847153703e-07 0  2.058205332898884 -7.33152229354235e-07 0  2.162836594218911 -7.33152201100257e-07 0  2.271253960319833 -7.331521891276953e-07 0  2.383594449832397 -7.331521840038313e-07 0  2.500000003028974 0.1024992668475797 0  2.500000003028975 0.2049992668472951 0  2.500000003028978 0.3074992668475416 0  2.383594449832634 0.4099992668478258 0  2.271253960320297 0.409999266847831 0  2.16283659421959 0.4099992668478435 0  2.058205332899786 0.4099992668478705 0  1.957227980517115 0.4099992668479253 0  1.859776911910382 0.4099992668480528 0  1.76572900485615 0.4099992668482839 0  1.674965421808453 0.4099992668487753 0  1.587371442790657 0.409999266849664 0  1.502836392139365 0.4099992668513573 0  1.421253451539364 0.4099992668546309 0  1.342519519085661 0.4099992668601943 0  1.266535092925287 0.4099992668699272 0  1.193204180198649 0.4099992668882699 0  1.122434103619433 0.4099992669211975 0  1.054135448665317 0.4099992669763211 0  0.9882218842504764 0.4099992670856852 0  0.9246101359209811 0.409999267286821 0  0.8632198173005864 0.4099992676724464 0  0.8039733499133523 0.4099992684440733 0  0.7467958633311588 0.4099992699908553 0  0.6916151179425751 0.409999272995351 0  0.6383613721883562 0.4099992788003793 0  0.586967339372276 0.4099992886519049 0  0.5373680666150787 0.4099993036316214 0  0.4895008823140299 0.4099993245015366 0  0.4433053126123683 0.409999349992401 0  0.3987229619358218 0.4099993783339554 0  0.3556975006587693 0.4099994073168287 0  0.3141745601784176 0.4099994341967181 0  0.2741016653356951 0.4099994564585848 0  0.2354281912089786 0.4099994724497807 0  0.1981052497328818 0.4099994829614961 0  0.1620856917234279 0.4099994891282623 0  0.1273240008036828 0.4099994925657314 0  0.09377624531838291 0.4099994945449159 0  0.06140002406499516 0.4099994955732316 0  0.03015444159625381 0.4099994961073722 0  0.2497468076502589 0.2050254481002335 0  0.2497468076502614 0.1949745518997913 0  0.2469965182589913 0.1829314583150737 0  0.2439893655128491 0.1762313023775388 0  0.2400332066964738 0.1700439512014851 0  0.2352133895488045 0.1645028690260621 0  0.2296338944069519 0.1597275863134511 0  0.2234150907468167 0.1558211195736687 0  0.2166911402379364 0.1528677428406123 0  0.2096071023765135 0.150931169537418 0  0.202315805067587 0.1500531769309043 0  0.1949745474873749 0.1502527062204962 0  0.1877417066853956 0.151525452043806 0  0.1807733207359801 0.1538439565309977 0  0.174219722521359 0.1571582008926799 0  0.1682222964380976 0.1613966849798993 0  0.1629104283152646 0.1664679693991733 0  0.1583987140178479 0.1722626484641589 0  0.1547844872884659 0.1786557102410273 0  0.1521457198361501 0.1855092336352425 0  0.1505393392863984 0.1926753637358797 0  0.1505393403440303 0.2073236396674118 0  0.1521457219617185 0.214489770116175 0  0.1547844904601991 0.2213432941138267 0  0.1583987182533693 0.2277363568250248 0  0.1629104335995701 0.2335310372158523 0  0.1682223027940462 0.2386023235481296 0  0.174219729929316 0.242840810208763 0  0.1807733292162538 0.2461550581414406 0  0.1877417162411231 0.2484735675387121 0  0.1949745581279952 0.2497463201314572 0  0.2023158167842291 0.2499458583743967 0  0.2096071151962437 0.2490678782781457 0  0.2166911541323228 0.2471313214625465 0  0.2234151057157157 0.2441779678177591 0  0.2296339103887906 0.2402715324960903 0  0.2352134064095564 0.2354962944405877 0  0.2400332241333672 0.2299552751646564 0  0.2439893826996416 0.2237680243758069 0  0.2469965329741808 0.2170680428052642 0  0.2564581078486132 0.2099997542579357 0  0.2639264127442152 0.2099996696414007 0  0.2713947163434739 0.2099996148653447 0  0.2788630194650339 0.2099995738866706 0  0.2863313216517891 0.2099995409728097 0  0.293799625031019 0.2099995126501966 0  0.301267926921776 0.2099994867099181 0  0.3087362280293981 0.209999470135615 0  0.3162045313569215 0.2099994539279799 0  0.3236728321853416 0.2099994388256969 0  0.3311411353957803 0.2099994253502351 0  0.3386094360150444 0.2099994129616311 0  0.3460777386700214 0.2099994011166486 0  0.3535460396086 0.2099993882572598 0  0.3610143407495008 0.2099993812432883 0  0.3684826432656893 0.2099993730747948 0  0.3759509441417566 0.2099993646577679 0  0.3834192467419664 0.2099993566335063 0  0.3908875476684517 0.209999348884897 0  0.3983558503366985 0.2099993415534457 0  0.4058241512119317 0.2099993341657645 0  0.4132924537168021 0.2099993264580135 0  0.4207607547035062 0.2099993173436552 0  0.4282290560292778 0.2099993128450231 0  0.4356973584926785 0.2099993071646158 0  0.443165659714955 0.2099993009542266 0  0.4506339622758476 0.2099992946940547 0  0.4581022633931186 0.2099992885238244 0  0.4655705660383789 0.2099992824402893 0  0.4730388670192757 0.2099992764594204 0  0.480507169772657 0.2099992705610893 0  0.4879754707653798 0.2099992647233583 0  0.4954437736336876 0.2099992590242504 0  0.502912074362208 0.2099992536870949 0  0.5103803773181526 0.2099992485822045 0  0.5178486782230013 0.2099992438500755 0  0.5253169819241212 0.2099992391806539 0  0.5327852826409278 0.2099992347591458 0  0.5402535861930303 0.209999230882316 0  0.5477218869640915 0.2099992276920884 0  0.555190190971212 0.2099992235313059 0  0.5626584922040568 0.2099992173155131 0  0.570126793682778 0.2099992230943079 0  0.5775950986099939 0.2099992267648532 0  0.5850633999768312 0.2099992300045384 0  0.5925317036912161 0.209999235489973 0  0.6000000060191647 0.2049992378056272 0  0.6000000025404918 0.1949992377121383 0  0.5925317003527575 0.1899992323600569 0  0.5850633997643838 0.1899992261005599 0  0.5775950959713733 0.1899992218174368 0  0.5701267954965665 0.1899992180947054 0  0.5626584921363096 0.1899992124519949 0  0.5551901882501726 0.1899992179318142 0  0.5477218873401049 0.1899992208578601 0  0.5402535829281716 0.1899992236915837 0  0.5327852820515695 0.1899992271232515 0  0.5253169775163025 0.1899992311722736 0  0.5178486760078168 0.1899992357609851 0  0.5103803716941762 0.1899992407576608 0  0.502912070384513 0.1899992460820634 0  0.4954437662962013 0.1899992516663038 0  0.487975464848839 0.1899992574683799 0  0.480507160845762 0.1899992634792229 0  0.4730388590310651 0.1899992696658726 0  0.4655705551644042 0.1899992760550648 0  0.4581022535325852 0.1899992825791457 0  0.4506339498921345 0.1899992891900721 0  0.4431656481809529 0.189999295899696 0  0.4356973444922722 0.1899993026794906 0  0.4282290424504081 0.1899993092013505 0  0.4207607390211656 0.1899993143792898 0  0.4132924358776451 0.1899993240667646 0  0.4058241340393411 0.1899993326351058 0  0.3983558307905062 0.1899993405207323 0  0.3908875288304439 0.1899993485434181 0  0.3834192255288448 0.1899993567164765 0  0.3759509234868254 0.1899993651002972 0  0.3684826201911006 0.1899993738002321 0  0.3610143183368938 0.1899993819578732 0  0.3535460150111449 0.1899993892189059 0  0.3460777114177914 0.1899994023986742 0  0.3386094095707424 0.1899994148992733 0  0.3311411059054635 0.1899994274903966 0  0.3236728044158486 0.18999944110382 0  0.3162045008597837 0.1899994561352545 0  0.3087361994554498 0.1899994720407484 0  0.3012678957690357 0.1899994884896633 0  0.2937995928918016 0.1899995141776433 0  0.2863312915923932 0.1899995425199979 0  0.2788629891969426 0.189999575357277 0  0.2713946876819806 0.1899996160112321 0  0.2639263867298671 0.189999670825669 0  0.2564580868774436 0.1899997
[...]
<PointData  Vectors="f_30-0"> 
<DataArray  type="Float64"  Name="f_30-0"  NumberOfComponents="3" format="ascii">0.0000000000000000e+00 0.0000000000000000e+00 0.0000000000000000e+00  0.0000000000000000e+00 0.0000000000000000e+00 0.0000000000000000e+00  0.0000000000000000e+00 0.0000000000000000e+00 0.0000000000000000e+00  0.0000000000000000e+00 0.0000000000000000e+00 0.0000000000000000e+00  6.6018258653460322e-03 -2.4878565024151086e-02 0.0000000000000000e+00  -5.3881146266617321e-04 -2.1786906665907001e-02 0.0000000000000000e+00  0.0000000000000000e+00 0.0000000000000000e+00 0.0000000000000000e+00  0.0000000000000000e+00 0.0000000000000000e+00 0.0000000000000000e+00  0.0000000000000000e+00 0.0000000000000000e+00 0.0000000000000000e+00  0.0000000000000000e+00 0.0000000000000000e+00 0.0000000000000000e+00  1.3969204898923445e-02 -7.0300140079202530e-02 0.0000000000000000e+00  0.0000000000000000e+00 0.0000000000000000e+00 0.0000000000000000e+00  0.0000000000000000e+00 0.0000000000000000e+00 0.0000000000000000e+00  0.0000000000000000e+00 0.0000000000000000e+00 0.0000000000000000e+00  0.0000000000000000e+00 0.0000000000000000e+00 0.0000000000000000e+00  0.0000000000000000e+00 0.0000000000000000e+00 0.0000000000000000e+00  0.0000000000000000e+00 0.0000000000000000e+00 0.0000000000000000e+00  0.0000000000000000e+00 0.0000000000000000e+00 0.0000000000000000e+00  0.0000000000000000e+00 0.0000000000000000e+00 0.0000000000000000e+00  0.0000000000000000e+00 0.0000000000000000e+00 0.0000000000000000e+00  0.0000000000000000e+00 0.0000000000000000e+00 0.0000000000000000e+00  0.0000000000000000e+00 0.0000000000000000e+00 0.0000000000000000e+00  0.0000000000000000e+00 0.0000000000000000e+00 0.0000000000000000e+00  0.0000000000000000e+00 0.0000000000000000e+00 0.0000000000000000e+00  0.0000000000000000e+00 0.0000000000000000e+00 0.0000000000000000e+00  0.0000000000000000e+00 0.0000000000000000e+00 0.0000000000000000e+00  0.0000000000000000e+00 0.0000000000000000e+00 0.0000000000000000e+00  0.0000000000000000e+00 0.0000000000000000e+00 0.0000000000000000e+00  0.0000000000000000e+00 0.0000000000000000e+00 0.0000000000000000e+00  0.0000000000000000e+00 0.0000000000000000e+00 0.0000000000000000e+00  0.0000000000000000e+00 0.0000000000000000e+00 0.0000000000000000e+00  0.0000000000000000e+00 0.0000000000000000e+00 0.0000000000000000e+00  0.0000000000000000e+00 0.0000000000000000e+00 0.0000000000000000e+00  0.0000000000000000e+00 0.0000000000000000e+00 0.0000000000000000e+00  0.0000000000000000e+00 0.0000000000000000e+00 0.0000000000000000e+00  0.0000000000000000e+00 0.0000000000000000e+00 0.0000000000000000e+00  0.0000000000000000e+00 0.0000000000000000e+00 0.0000000000000000e+00  0.0000000000000000e+00 0.0000000000000000e+00 0.0000000000000000e+00  0.0000000000000000e+00 0.0000000000000000e+00 0.0000000000000000e+00  0.0000000000000000e+00 0.0000000000000000e+00 0.0000000000000000e+00  0.0000000000000000e+00 0.0000000000000000e+00 0.0000000000000000e+00  0.0000000000000000e+00 0.0000000000000000e+00 0.0000000000000000e+00  0.0000000000000000e+00 0.0000000000000000e+00 0.0000000000000000e+00  0.0000000000000000e+00 0.0000000000000000e+00 0.0000000000000000e+00  0.0000000000000000e+00 0.0000000000000000e+00 0.0000000000000000e+00  0.0000000000000000e+00 0.0000000000000000e+00 0.0000000000000000e+00  0.0000000000000000e+00 0.0000000000000000e+00 0.0000000000000000e+00  0.0000000000000000e+00 0.0000000000000000e+00 0.0000000000000000e+00  0.0000000000000000e+00 0.0000000000000000e+00 0.0000000000000000e+00  0.0000000000000000e+00 0.0000000000000000e+00 0.0000000000000000e+00  0.0000000000000000e+00 0.0000000000000000e+00 0.0000000000000000e+00  0.0000000000000000e+00 0.0000000000000000e+00 0.0000000000000000e+00  0.0000000000000000e+00 0.0000000000000000e+00 0.0000000000000000e+00  0.0000000000000000e+00 0.0000000000000000e+00 0.0000000000000000e+00  0.0000000000000000e+00 0.0000000000000000e+00 0.0000000000000000e+00  0.0000000000000000e+00 0.0000000000000000e+00 0.0000000000000000e+00  0.0000000000000000e+00 0.0000000000000000e+00 0.0000000000000000e+00  0.0000000000000000e+00 0.0000000000000000e+00 0.0000000000000000e+00  0.0000000000000000e+00 0.0000000000000000e+00 0.0000000000000000e+00  0.0000000000000000e+00 0.0000000000000000e+00 0.0000000000000000e+00  0.0000000000000000e+00 0.0000000000000000e+00 0.0000000000000000e+00  0.0000000000000000e+00 0.0000000000000000e+00 0.0000000000000000e+00  2.7079803749328057e-09 1.0697795077071586e-09 0.0000000000000000e+00  -9.9997787975148515e-11 1.3423853453813836e-09 0.0000000000000000e+00  -3.1497696113446628e-09 1.2168605175110498e-09 0.0000000000000000e+00  0.0000000000000000e+00 0.0000000000000000e+00 0.0000000000000000e+00  0.0000000000000000e+00 0.0000000000000000e+00 0.0000000000000000e+00  0.0000000000000000e+00 0.0000000000000000e+00 0.0000000000000000e+00  0.0000000000000000e+00 0.0000000000000000e+00 0.0000000000000000e+00  0.0000000000000000e+00 0.0000000000000000e+00 0.0000000000000000e+00  0.0000000000000000e+00 0.0000000000000000e+00 0.0000000000000000e+00  0.0000000000000000e+00 0.0000000000000000e+00 0.0000000000000000e+00  0.0000000000000000e+00 0.0000000000000000e+00 0.0000000000000000e+00  0.0000000000000000e+00 0.0000000000000000e+00 0.0000000000000000e+00  0.0000000000000000e+00 0.0000000000000000e+00 0.0000000000000000e+00  0.0000000000000000e+00 0.0000000000000000e+00 0.0000000000000000e+00  0.0000000000000000e+00 0.0000000000000000e+00 0.0000000000000000e+00  0.0000000000000000e+00 0.0000000000000000e+00 0.0000000000000000e+00  0.0000000000000000e+00 0.0000000000000000e+00 0.0000000000000000e+00  0.0000000000000000e+00 0.0000000000000000e+00 0.0000000000000000e+00  0.0000000000000000e+00 0.0000000000000000e+00 0.0000000000000000e+00  0.0000000000000000e+00 0.0000000000000000e+00 0.0000000000000000e+00  0.0000000000000000e+00 0.0000000000000000e+00 0.0000000000000000e+00  0.0000000000000000e+00 0.0000000000000000e+00 0.0000000000000000e+00  0.0000000000000000e+00 0.0000000000000000e+00 0.0000000000000000e+00  0.0000000000000000e+00 0.0000000000000000e+00 0.0000000000000000e+00  0.0000000000000000e+00 0.0000000000000000e+00 0.0000000000000000e+00  0.0000000000000000e+00 0.0000000000000000e+00 0.0000000000000000e+00  0.0000000000000000e+00 0.0000000000000000e+00 0.0000000000000000e+00  0.0000000000000000e+00 0.0000000000000000e+00 0.0000000000000000e+00  0.0000000000000000e+00 0.0000000000000000e+00 0.0000000000000000e+00  0.0000000000000000e+00 0.0000000000000000e+00 0.0000000000000000e+00  0.0000000000000000e+00 0.0000000000000000e+00 0.0000000000000000e+00  0.0000000000000000e+00 0.0000000000000000e+00 0.0000000000000000e+00  0.0000000000000000e+00 0.0000000000000000e+00 0.0000000000000000e+00  0.0000000000000000e+00 0.0000000000000000e+00 0.0000000000000000e+00  0.0000000000000000e+00 0.0000000000000000e+00 0.0000000000000000e+00  0.0000000000000000e+00 0.0000000000000000e+00 0.0000000000000000e+00  0.0000000000000000e+00 0.0000000000000000e+00 0.0000000000000000e+00  0.0000000000000000e+00 0.0000000000000000e+00 0.0000000000000000e+00  0.0000000000000000e+00 0.0000000000000000e+00 0.0000000000000000e+00  0.0000000000000000e+00 0.0000000000000000e+00 0.0000000000000000e+00  0.0000000000000000e+00 0.0000000000000000e+00 0.0000000000000000e+00  0.0000000000000000e+00 0.0000000000000000e+00 0.0000000000000000e+00  0.0000000000000000e+00 0.0000000000000000e+00 0.0000000000000000e+00  0.0000000000000000e+00 0.0000000000000000e+00 0.0000000000000000e+00  0.0000000000000000e+00 0.0000000000000000e+00 0.0000000000000000e+00  0.0000000000000000e+00 0.0000000000000000e+00 0.0000000000000000e+00  0.0000000000000000e+00 0.0000000000000000e+00 0.0000000000000000e+00  0.0000000000000000e+00 0.0000000000000000e+00 0.0000000000000000e+00  0.0000000000000000e+00 0.0000000000000000e+00 0.0000000000000000e+00  0.0000000000000000e+00 0.0000000000000000e+00 0.0000000000000000e+00  0.0000000000000000e+00 0.0000000000000000e+00 0.0000000000000000e+00  0.0000000000000000e+00 0.0000000000000000e+00 0.0000000000000000e+00  0.0000000000000000e+00 0.0000000000000000e+00 0.0000000000000000e+00  0.0000000000000000e+00 0.0000000000000000e+00 0.0000000000000000e+00  0.0000000000000000e+00 0.0000000000000000e+00 0.0000000000000000e+00  0.0000000000000000e+00 0.0000000000000000e+00 0.0000000000000000e+00  0.0000000000000000e+00 0.0000000000000000e+00 0.0000000000000000e+00  0.0000000000000000e+00 0.0000000000000000e+00 0.0000000000000000e+00  0.0000000000000000e+00 0.0000000000000000e+00 0.0000000000000000e+00  0.0000000000000000e+00 0.0000000000000000e+00 0.0000000000000000e+00  0.0000000000000000e+00 0.0000000000000000e+00 0.0000000000000000e+00  0.0000000000000000e+00 0.0000000000000000e+00 0.0000000000000000e+00  0.0000000000000000e+00 0.0000000000000000e+00 0.0000000000000000e+00  0.0000000000000000e+00 0.0000000000000000e+00 0.0000000000000000e+00  0.0000000000000000e+00 0.0000000000000000e+00 0.0000000000000000e+00  0.0000000000000000e+00 0.0000000000000000e+00 0.0000000000000000e+00  0.0000000000000000e+00 0.0000000000000000e+00 0.0000000000000000e+00  0.0000000000000000e+00 0.0000000000000000e+00 0.0000000000000000e+00  0.0000000000000000e+00 0.0000000000000000e+00 0.0000000000000000e+00  0.0000000000000000e+00 0.0000000000000000e+00 0.0000000000000000e+00  0.0000000000000000e+00 0.0000000000000000e+00 0.0000000000000000e+00  0.0000000000000000e+00 0.0000000000000000e+00 0.0000000000000000e+00  0.0000000000000000e+00 0.0000000000000000e+00 0.0000000000000000e+00  0.0000000000000000e+00 0.0000000000000000e+00 0.0000000000000000e+00  0.0000000000000000e+00 0.0000000000000000e+00 0.0000000000000000e+00  0.0000000000000000e+00 0.0000000000000000e+00 0.0000000000000000e+00  0.0000000000000000e+00 0.0000000000000000e+00 0.0000000000000000e+00  0.0000000000000000e+00 0.0000000000000000e+00 0.0000000000000000e+00  0.0000000000000000e+00 0.0000000000000000e+00 0.0000000000000000e+00  0.0000000000000000e+00 0.0000000000000000e+00 0.0000000000000000e+00  0.0000000000000000e+00 0.0000000000000000e+00 0.0000000000000000e+00  4.2834911838663572e-02 9.8349096347317339e-02 0.0000000000000000e+00  3.3273662576664129e-02 5.1420724457892739e-02 0.0000000000000000e+00  2.2389932959475028e-02 7.0684887423679444e-03 0.0000000000000000e+00  1.9117592520418551e-02 -3.3712957656399756e-02 0.0000000000000000e+00  1.0518455359472741e-02 -4.7029428800076177e-02 0.0000000000000000e+00  1.7374645381485494e-02 -7.4076931509828609e-02 0.0000000000000000e+00  1.3582614680009141e-02 -8.0721242165549281e-02 0.0000000000000000e+00  -2.7190777069517852e-03 -8.4884107286682872e-02 0.0000000000000000e+00  1.8170472789821097e-02 -7.7010217871842326e-02 0.0000000000000000e+00  -3.2110005919066204e-03 -8.0326316053249955e-02 0.0000000000000000e+00  1.6169825337571719e-02 -7.8292722291505884e-02 0.0000000000000000e+00  -3.2367520136153223e-03 -7.6653989006860629e-02 0.0000000000000000e+00  1.6270968465002141e-02 -7.8030410569896860e-02 0.0000000000000000e+00  3.0041078716088154e-04 -7.1748935662775085e-02 0.0000000000000000e+00  -1.6093650321803493e-03 -6.8924315336187328e-02 0.0000000000000000e+00  5.4511151576009474e-03 -6.1799169746118911e-02 0.0000000000000000e+00  -2.4551551063474392e-03 -6.3922261337983052e-02 0.0000000000000000e+00  6.0819028522153444e-03 -6.0140527080465314e-02 0.0000000000000000e+00  -3.7656734567495806e-03 -6.0532688191304182e-02 0.0000000000000000e+00  7.7277234767560952e-03 -5.9971821087954645e-02 0.0000000000000000e+00  -5.8704265240542798e-03 -5.9760249155645186e-02 0.0000000000000000e+00  1.0893930882074456e-02 -6.1125628904629040e-02 0.0000000000000000e+00  -3.0119444899343630e-03 -5.9362214573341059e-02 0.0000000000000000e+00  -5.5786894537259938e-03 -6.2360319926991252e-02 0.0000000000000000e+00  2.7070882332438165e-03 -6.4655757978848108e-02 0.0000000000000000e+00  -3.6926444753092162e-03 -6.6198386258248962e-02 0.0000000000000000e+00  2.8553678781289130e-03 -6.9600552291232798e-02 0.0000000000000000e+00  -7.3959175030754625e-03 -7.4046282232160324e-02 0.0000000000000000e+00  7.4877493898167086e-03 -7.5960798200727028e-02 0.0000000000000000e+00  -1.1149894021292970e-02 -7.8686378401231633e-02 0.0000000000000000e+00  8.9914597478711663e-03 -8.3767992047303577e-02 0.0000000000000000e+00  -1.0402010399212609e-02 -8.5493665319022374e-02 0.0000000000000000e+00  6.8155698203820475e-03 -9.7769917155753283e-02 0.0000000000000000e+00  -1.1281324793730575e-02 -1.0086340530859399e-01 0.0000000000000000e+00  7.4792941913472966e-03 -1.0192910149250954e-01 0.0000000000000000e+00  -1.4674837126679453e-02 -1.0152877286016553e-01 0.0000000000000000e+00  1.0645755942829075e-02 -1.0945206019877587e-01 0.0000000000000000e+00  -1.8350486754907636e-02 -1.1980205014685881e-01 0.0000000000000000e+00  1.3059028061841836e-02 -1.2860623937660387e-01 0.0000000000000000e+00  -1.7230585343942211e-02 -1.2231625414914078e-01 0.0000000000000000e+00  1.1745986377765054e-02 -1.3275882648338247e-01 0.0000000000000000e+00  2.9087994602441393e-04 -1.2870481727754393e-01 0.0000000000000000e+00  -1.9789979588458701e-02 -1.2742009735231152e-01 0.0000000000000000e+00  1.3931139228047904e-02 -1.1281186899211497e-01 0.0000000000000000e+00  -1.0201902971458702e-02 -1.2013134491177177e-01 0.0000000000000000e+00  2.7110255058465642e-02 -8.9619530239210571e-02 0.0000000000000000e+00  2.8556919788888621e-02 -6.3856235832234834e-02 0.0000000000000000e+00  -1.6833513133262049e-02 -5.4546133839157365e-02 0.0000000000000000e+00  -5.4188096223666549e-03 -7.9631187420818081e-02 0.0000000000000000e+00  2.0656666674818278e-02 -1.0896204652660241e-01 0.0000000000000000e+00  -4.8792267254997588e-03 -1.1388820942891272e-01 0.0000000000000000e+00  2.1852263787023637e-02 -1.3035440808698695e-01 0.0000000000000000e+00  5.8263288217410697e-03 -1.2089074917101347e-01 0.0000000000000000e+00  -1.4161937735130609e-02 -1.2795646416103604e-01 0.0000000000000000e+00  1.8496102633558414e-02 -1.1463765509675919e-01 0.0000000000000000e+00  -1.4167783700649347e-02 -1.1463050473011950e-01 0.0000000000000000e+00  1.6028257332877650e-02 -1.1169371985550403e-01 0.0000000000000000e+00  -1.2725372330040341e-02 -1.0979123052851918e-01 0.0000000000000000e+00  1.2882408155128660e-02 -1.0180988477138821e-01 0.0000000000000000e+00  -1.2143320066566937e-02 -9.6764222363121932e-02 0.0000000000000000e+00  1.1660521179993864e-02 -8.7707298470822342e-02 0.0000000000000000e+00  -1.2084219066141743e-02 -8.4617301752087537e-02 0.0000000000000000e+00  9.3995827580523033e-03 -8.1049510538000441e-02 0.0000000000000000e+00  -1.0782566697636187e-02 -7.9354118910404475e-02 0.0000000000000000e+00  8.0058941318168486e-03 -7.4805929340855504e-02 0.0000000000000000e+00  -1.0203502524259767e-02 -7.1335496282906752e-02 0.0000000000000000e+00  7.3629265687080630e-03 -6.5817664590400615e-02 0.0000000000000000e+00  -9.7284173043805759e-03 -6.4156501937837895e-02 0.0000000000000000e+00  6.7118796677133217e-03 -6.2922603941972993e-02 0.0000000000000000e+00  -8.6915082173308518e-03 -6.1057292748094232e-02 0.0000000000000000e+00  6.8877697253096224e-03 -6.2486596044110838e-02 0.0000000000000000e+00  -3.1615525288182910e-03 -5.9650521767124300e-02 0.0000000000000000e+00  -7.9113845945679873e-03 -6.0841210114134917e-02 0.0000000000000000e+00  1.5223647174501145e-03 -5.7790843295213050e-02 0.0000000000000000e+00  -7.2483910603560620e-03 -6.1815025456517292e-02 0.0000000000000000e+00  2.4132008036678214e-03 -6.4828813305598018e-02 0.0000000000000000e+00  -6.7890686642542502e-03 -6.6043420948034379e-02 0.0000000000000000e+00  2.5620993757773315e-03 -6.7036575285453898e-02 0.0000000000000000e+00  -6.3777352149642277e-03 -6.4759739184892168e-02 0.0000000000000000e+00  3.1093637034229345e-03 -6.8981774320705583e-02 0.0000000000000000e+00  7.5520549327771471e-05 -7.1741621201477229e-02 0.0000000000000000e+00  -1.6208770417437235e-02 -7.8648620687279416e-02 0.0000000000000000e+00  4.3437933474344747e-03 -7.7845625797272666e-02 0.0000000000000000e+00  -1.7318187854791042e-02 -8.1081343558151872e-02 0.0000000000000000e+00  4.7798547209973773e-03 -8.2904347973747475e-02 0.0000000000000000e+00  -1.9102731494185125e-02 -8.0988395090819953e-02 0.0000000000000000e+00  3.9975201285517639e-03 -8.4142607852555770e-02 0.0000000000000000e+00  -1.3725867689976280e-02 -7.9107860899988822e-02 0.0000000000000000e+00  -1.9195027933637348e-02 -7.4269251459051097e-02 0.0000000000000000e+00  -1.2006212178634602e-02 -4.8581690515225685e-02 0.0000000000000000e+00  -2.1446257968419025e-02 -3.4760552991339677e-02 0.0000000000000000e+00  -2.3500616094581313e-02 5.5473317115297084e-03 0.0000000000000000e+00  -3.3890836701186582e-02 4.9631980577832482e-02 0.0000000000000000e+00  -4.4539944910667949e-02 9.8817467801583320e-02 0.0000000000000000e+00  -5.8926172884196323e-04 -2.8775799068738738e-02 0.0000000000000000e+00  -2.1565041245974127e-03 6.7634049193688650e-02 0.0000000000000000e+00  -1.5421637911103186e-03 9.2479287321846015e-02 0.0000000000000000e+00  3.9115718028607310e-03 9.9761786196789465e-02 0.0000000000000000e+00  6.6143087221379583e-04 1.1934949215906206e-02 0.0000000000000000e+00  2.3924494171867846e-04 9.3809405105901786e-02 0.0000000000000000e+00  3.2297071799688911e-04 4.4560023591207566e-02 0.0000000000000000e+00  1.7470910531308288e-04 8.5291866785530440e-02 0.0000000000000000e+00  2.1993188747203370e-03 6.6096725546614291e-02 0.0000000000000000e+00  2.9881083699208870e-04 6.4477368099068497e-02 0.0000000000000000e+00  -5.6850882644437291e-04 7.6966562937341942e-02 0.0000000000000000e+00  1.6949077163406225e-03 5.3600974942484149e-02 0.0000000000000000e+00  -1.9731423741430270e-06 6.2513529549089938e-02 0.0000000000000000e+00  -1.6965213401049632e-03 5.8888915492097467e-02 0.0000000000000000e+00  -6.7389538495233228e-05 5.1097651800543625e-02 0.0000000000000000e+00  -2.7137691372821965e-04 5.7209748134789754e-02 0.0000000000000000e+00  2.6469927348395940e-04 6.9313288066902207e-02 0.0000000000000000e+00  -8.3319099872682589e-04 4.9409143380706323e-02 0.0000000000000000e+00  1.8006913251127378e-04 5.2521217587943092e-02 0.0000000000000000e+00  -4.3421565604924900e-04 4.7131986586055115e-02 0.0000000000000000e+00  -1.3948387692376619e-03 4.9279426013846266e-02 0.0000000000000000e+00  6.3702034260627329e-04 3.8769910722704866e-02 0.0000000000000000e+00  -1.6781492330579642e-04 4.5197176689560636e-02 0.0000000000000000e+00  -5.1013820791389285e-04 8.6292803893551998e-02 0.0000000000000000e+00  2.8485610865884115e-04 5.0907326022646734e-02 0.0000000000000000e+00  6.7840185993018973e-03 7.1333725485412058e-02 0.0000000000000000e+00  -1.7057380545256552e-02 -1.2085625955258372e-02 0.0000000000000000e+00  -3.1378915549269224e-03 6.1385643850756878e-02 0.0000000000000000e+00  -4.7603199791446706e-03 6.8843232852297265e-02 0.0000000000000000e+00  9.2466118786855810e-03 3.2782193129925787e-02 0.0000000000000000e+00  -4.0391040844587178e-03 4.6119142267206023e-02 0.0000000000000000e+00  -2.1422928573069599e-03 4.5027390297995622e-02 0.0000000000000000e+00  -1.9966387866228678e-03 5.5289841448479891e-02 0.0000000000000000e+00  -2.6310455542943043e-03 3.6414404175146242e-02 0.0000000000000000e+00  -7.6493595086886185e-04 4.0703996031770884e-02 0.0000000000000000e+00  -1.6337597746642152e-03 4.2235804814021824e-02 0.0000000000000000e+00  -8.0264459827786825e-04 3.5777329310825078e-02 0.0000000000000000e+00  -9.3906179392306654e-04 3.8696362468062802e-02 0.0000000000000000e+00  -2.1962155610894215e-03 5.1761801888529163e-02 0.0000000000000000e+00  4.8746653719944257e-04 3.7398182640862664e-02 0.0000000000000000e+00  2.4448533507536959e-04 3.4419958377532769e-02 0.0000000000000000e+00  -7.6116128413712273e-03 -4.8090692407916399e-02 0.0000000000000000e+00  5.8311132620412192e-03 -4.6665434370169671e-02 0.0000000000000000e+00  -2.7486614344947390e-02 4.6741134852816363e-02 0.0000000000000000e+00  1.6983581950343170e-02 -1.2331922417608736e-02 