<?xml version="1.0"?>
<VTKFile type="UnstructuredGrid"  version="0.1"  >
<UnstructuredGrid>
<Piece  NumberOfPoints="1419" NumberOfCells="2698">
<Points>
<DataArray  type="Float64"  NumberOfComponents="3"  format="ascii">0 0 0  0 0.41 0  2.5 0 0  2.5 0.41 0  0.6000009022268019 0.1899895312909343 0  0.5999989052330105 0.2099896058159081 0  0.25 0.2 0  0.15 0.2 0  0.2489897948556636 0.21 0  0.2489897948556636 0.19 0  0.5999999566339008 0.1999893521796385 0  0 0.3807142857143437 0  0 0.3514285714286952 0  0 0.3221428571430699 0  0 0.29285714285744 0  0 0.2635714285718054 0  0 0.2342857142861561 0  0 0.2050000000005308 0  0 0.175714285714732 0  0 0.1464285714289574 0  0 0.1171428571431897 0  0 0.08785714285737878 0  0 0.05857142857161107 0  0 0.02928571428580012 0  0.03015443760436003 0 0  0.06140001986583606 0 0  0.09377624077125973 0 0  0.1273239957535082 0 0  0.1620856860351972 0 0  0.1981052433264291 0 0  0.235428184091502 0 0  0.2741016576309132 0 0  0.3141745521465447 0 0  0.3556974926295285 0 0  0.3987229542472677 0 0  0.4433053055141081 0 0  0.4895008759286886 0 0  0.5373680609405097 0 0  0.5869673343216626 0 0  0.6383613676634521 0 0  0.6916151138468254 0 0  0.7467958595648856 0 0  0.8039733463919316 0 0  0.8632198139502143 0 0  0.9246101326867038 0 0  0.9882218810934433 0 0  1.054135445558498 0 0  1.122434100542598 0 0  1.193204177141305 0 0  1.266535089879536 0 0  1.342519516046404 0 0  1.421253448503939 0 0  1.502836389106271 0 0  1.587371439758838 0 0  1.674965418777374 0 0  1.765729001825544 0 0  1.859776908880082 0 0  1.957227977487062 0 0  2.058205329869943 0 0  2.162836591189951 0 0  2.271253957290865 0 0  2.383594446803425 0 0  2.5 0.1024999999997612 0  2.5 0.2049999999994743 0  2.5 0.3074999999997183 0  2.383594446803656 0.41 0  2.271253957291315 0.41 0  2.162836591190598 0.41 0  2.058205329870775 0.41 0  1.957227977488067 0.41 0  1.859776908881246 0.41 0  1.765729001826854 0.41 0  1.674965418778818 0.41 0  1.58737143976041 0.41 0  1.502836389107956 0.41 0  1.421253448505726 0.41 0  1.342519516048286 0.41 0  1.266535089881505 0.41 0  1.193204177143353 0.41 0  1.122434100544716 0.41 0  1.05413544556068 0.41 0  0.9882218810956305 0.41 0  0.9246101326886647 0.41 0  0.8632198139519631 0.41 0  0.8039733463934788 0.41 0  0.7467958595662458 0.41 0  0.6916151138480078 0.41 0  0.6383613676644679 0.41 0  0.5869673343225223 0.41 0  0.5373680609412221 0.41 0  0.4895008759292634 0.41 0  0.4433053055145528 0.41 0  0.3987229542475914 0.41 0  0.3556974926297398 0.41 0  0.3141745521466497 0.41 0  0.2741016576310038 0.41 0  0.2354281840915826 0.41 0  0.1981052433265003 0.41 0  0.1620856860352591 0.41 0  0.1273239957535623 0.41 0  0.09377624077128965 0.41 0  0.06140001986584975 0.41 0  0.03015443760436654 0.41 0  0.2497468076502589 0.2050254481002335 0  0.2497468076502614 0.1949745518997913 0  0.2469965252529372 0.1829317073451959 0  0.2439893735792749 0.1762316384219906 0  0.2400332147834255 0.1700443375285386 0  0.2352133972704371 0.1645032867342007 0  0.2296339016332438 0.1597280261969788 0  0.2234150974217223 0.1558215752574715 0  0.2166911463437691 0.1528682099456123 0  0.2096071079204251 0.1509316448471593 0  0.2023158100364996 0.1500536585536553 0  0.194974551899914 0.1502531923497262 0  0.1877417105387872 0.1515259415822739 0  0.1807733240461124 0.153844448527136 0  0.1742197252835808 0.15715869474974 0  0.1682222986673531 0.1613971801805478 0  0.162910430003803 0.1664684656256651 0  0.1583987151779087 0.1722631454351573 0  0.1547844879126891 0.178656207771761 0  0.1521457199348551 0.1855097315605723 0  0.1505393388476355 0.1926758619366523 0  0.1505393388476328 0.2073241380633295 0  0.1521457199348437 0.2144902684393899 0  0.1547844879126531 0.221343792228163 0  0.1583987151778488 0.2277368545647528 0  0.1629104300036858 0.2335315343742052 0  0.1682222986671726 0.2386028198193036 0  0.1742197252833576 0.2428413052501257 0  0.1807733240458683 0.2461555514727623 0  0.1877417105384929 0.2484740584176516 0  0.1949745518995776 0.2497468076502398 0  0.202315810036185 0.2499463414463592 0  0.2096071079201568 0.2490683551528932 0  0.2166911463435495 0.2471317900544655 0  0.2234150974215506 0.2441784247426195 0  0.2296339016331197 0.2402719738031125 0  0.2352133972703547 0.2354967132658811 0  0.2400332147833751 0.2299556624715287 0  0.2439893735792577 0.2237683615780412 0  0.246996525252926 0.2170682926548348 0  0.256460216737921 0.2099963743499258 0  0.2639286110506334 0.2099931934729735 0  0.271396136235929 0.2099913122057697 0  0.2788635453808839 0.2099905878977022 0  0.2863314505842353 0.2099904758785097 0  0.2937995866135662 0.2099905315862971 0  0.3012678471198339 0.2099905702738462 0  0.3087361659780533 0.2099906125179919 0  0.3162044772530529 0.2099906039427179 0  0.3236727835827501 0.2099906039549351 0  0.3311410638124184 0.2099906401129916 0  0.3386093828814467 0.2099906863500495 0  0.3460777055573202 0.2099907026237677 0  0.3535460262587612 0.2099906807834106 0  0.3610143397658991 0.2099906572551756 0  0.3684826340290805 0.2099906386006484 0  0.375950945603246 0.2099906297463209 0  0.3834192504125943 0.209990620471772 0  0.3908875805638072 0.2099906090061938 0  0.3983558821262526 0.2099905793491874 0  0.4058241855025069 0.2099905762941814 0  0.4132924736353832 0.2099905734041885 0  0.4207607776269236 0.2099905806022425 0  0.4282290945936298 0.209990601993534 0  0.435697414779023 0.2099905842846096 0  0.4431657245432361 0.2099905491849726 0  0.4506340189561556 0.2099905104480191 0  0.4581023131811222 0.2099904900213416 0  0.4655706097924043 0.209990455555689 0  0.4730389182119132 0.209990430595378 0  0.4805072284340855 0.2099903882387287 0  0.4879755377127086 0.209990332013767 0  0.4954438438713586 0.2099902862415173 0  0.5029121525706667 0.2099902145899498 0  0.5103804631818618 0.2099901111905648 0  0.5178487755043387 0.2099900147035894 0  0.5253170914927485 0.2099899212371599 0  0.5327854176242119 0.2099898282967634 0  0.5402537455617497 0.209989707268539 0  0.5477220797263415 0.2099895614407947 0  0.5551904225862245 0.2099893934789124 0  0.5626587463998605 0.2099891364728024 0  0.5701270054969287 0.2099888675718732 0  0.5775951234916546 0.2099885453378475 0  0.5850630593851464 0.2099884902330333 0  0.5925309433523437 0.2099888048050636 0  0.5999995580689571 0.2049894342381853 0  0.6000003364931803 0.1949894102719094 0  0.5925323349447155 0.1899887593927777 0  0.5850636370608251 0.1899884668856029 0  0.5775950107593678 0.1899885217314546 0  0.5701265303012364 0.1899888253285974 0  0.5626581995322779 0.1899890898597689 0  0.5551899339990033 0.1899893469945079 0  0.547721681465451 0.1899895259385414 0  0.5402534211517497 0.1899896686264611 0  0.5327851391253914 0.1899898076185724 0  0.5253168601025549 0.1899899129404025 0  0.5178485551379159 0.1899900037765855 0  0.5103802672064389 0.1899900866119348 0  0.5029119703349468 0.1899901635853145 0  0.4954436963499185 0.1899902317352019 0  0.4879754025727236 0.1899902986663188 0  0.4805071244766947 0.1899903569546809 0  0.473038829469003 0.189990401907395 0  0.4655705493669292 0.1899904264823606 0  0.4581022433949971 0.1899904445797536 0  0.4506339559564714 0.1899904756665511 0  0.4431656471866169 0.1899905201688889 0  0.4356973661633275 0.1899905686158934 0  0.4282290800692048 0.1899905904681796 0  0.4207607917303137 0.1899905752730954 0  0.4132924874512021 0.1899905694363423 0  0.4058241666372133 0.1899905706874372 0  0.3983558507315112 0.1899905926021607 0  0.3908875394114975 0.1899906272670673 0  0.3834192404361346 0.1899906448814677 0  0.375950935692578 0.1899906411754869 0  0.368482624761043 0.189990640890991 0  0.3610143104432262 0.1899906627819728 0  0.3535460160220416 0.1899906843972665 0  0.3460777309844181 0.1899907063976945 0  0.3386094511745896 0.189990682925817 0  0.3311411582755501 0.189990639774162 0  0.3236728443282837 0.1899906055188836 0  0.3162045373792605 0.1899906009606988 0  0.308736245834588 0.1899906143983149 0  0.3012679605986819 0.1899905710273673 0  0.2937996182862462 0.1899905290152614 0  0.2863311585206597 0.1899904653973337 0  0.278862445529945 0.1899905690175975 0  0.2713932500682724 0.1899913220202958 0  0.2639242154997187 0.1899932025358805 0  0.2564560212608465 0.1899963570928107 0  0.2607803190071609 0.2000671102614164 0  0.58878033450139 0.2001155537840177 0  0.5745072112605073 0.200192860210073 0  0.5511891411344217 0.2001016069899765 0  0.2751288547262061 0.1999902998639686 0  0.536519433721344 0.1999896192927292 0  0.2894621153791742 0.1998593735168175 0  0.5215828193675361 0.1999898173420118 0  0.3127789757513464 0.1998562286500905 0  0.3274069620211763 0.1999904472309268 0  0.5066462098022031 0.1999899936987939 0  0.3650630715888589 0.1998564960078448 0  0.4767730249585839 0.1999902386733804 0  0.3417402321723452 0.1998596994832901 0  0.3796850911391655 0.19999046851695 0  0.4618364279959136 0.1999902923439997 0  0.4917096206611146 0.1999901347509327 0  0.3946217136673334 0.1999904346622594 0  0.446899837341914 0.1999903504719548 0  0.4089549934174113 0.1998595673736121 0  0.4322718579550365 0.2001178802623263 0  0.4201487549868538 0.1999870360967471 0  0.3528922659353557 0.2000090915863557 0  0.5633122246345974 0.199970379667723 0  0.3006558738504642 0.1999870086458937 0  0.5815926843601164 0.1966427198158699 0  0.2677048105157765 0.1964162876156914 0  0.5290510902588599 0.197081321465089 0  0.5439876802151113 0.1970810774751395 0  0.2825132780309489 0.2035380511550098 0  0.3199386468793551 0.2028988600889297 0  0.4842413074644793 0.1970817819941572 0  0.5141144830179349 0.1970814981686922 0  0.3722167835206117 0.2028988956048777 0  0.4693047137758229 0.1970818645166592 0  0.3348752544088106 0.2028989247534117 0  0.3871534049745016 0.202898891988906 0  0.4543681232651093 0.1970819077345303 0  0.4991778907563084 0.1970816615911092 0  0.4020059964833164 0.2035383265900465 0  0.4394315334036667 0.1970819873535528 0  0.2550659347818417 0.2034062478122227 0  0.2548906656704914 0.1966915465128166 0  0.5946537500556057 0.202
[...]
<PointData  Vectors="f_39-0"> 
<DataArray  type="Float64"  Name="f_39-0"  NumberOfComponents="3" format="ascii">0.0000000000000000e+00 0.0000000000000000e+00 0.0000000000000000e+00  0.0000000000000000e+00 0.0000000000000000e+00 0.0000000000000000e+00  0.0000000000000000e+00 0.0000000000000000e+00 0.0000000000000000e+00  0.0000000000000000e+00 0.0000000000000000e+00 0.0000000000000000e+00  -3.4331533059231527e-03 -5.8040334974688397e-03 0.0000000000000000e+00  4.4492198843679972e-03 -4.1632265384068390e-03 0.0000000000000000e+00  0.0000000000000000e+00 0.0000000000000000e+00 0.0000000000000000e+00  0.0000000000000000e+00 0.0000000000000000e+00 0.0000000000000000e+00  0.0000000000000000e+00 0.0000000000000000e+00 0.0000000000000000e+00  0.0000000000000000e+00 0.0000000000000000e+00 0.0000000000000000e+00  7.9293550482432138e-04 -1.1360062164685436e-03 0.0000000000000000e+00  0.0000000000000000e+00 0.0000000000000000e+00 0.0000000000000000e+00  0.0000000000000000e+00 0.0000000000000000e+00 0.0000000000000000e+00  0.0000000000000000e+00 0.0000000000000000e+00 0.0000000000000000e+00  0.0000000000000000e+00 0.0000000000000000e+00 0.0000000000000000e+00  0.0000000000000000e+00 0.0000000000000000e+00 0.0000000000000000e+00  0.0000000000000000e+00 0.0000000000000000e+00 0.0000000000000000e+00  0.0000000000000000e+00 0.0000000000000000e+00 0.0000000000000000e+00  0.0000000000000000e+00 0.0000000000000000e+00 0.0000000000000000e+00  0.0000000000000000e+00 0.0000000000000000e+00 0.0000000000000000e+00  0.0000000000000000e+00 0.0000000000000000e+00 0.0000000000000000e+00  0.0000000000000000e+00 0.0000000000000000e+00 0.0000000000000000e+00  0.0000000000000000e+00 0.0000000000000000e+00 0.0000000000000000e+00  0.0000000000000000e+00 0.0000000000000000e+00 0.0000000000000000e+00  0.0000000000000000e+00 0.0000000000000000e+00 0.0000000000000000e+00  0.0000000000000000e+00 0.0000000000000000e+00 0.0000000000000000e+00  0.0000000000000000e+00 0.0000000000000000e+00 0.0000000000000000e+00  0.0000000000000000e+00 0.0000000000000000e+00 0.0000000000000000e+00  0.0000000000000000e+00 0.0000000000000000e+00 0.0000000000000000e+00  0.0000000000000000e+00 0.0000000000000000e+00 0.0000000000000000e+00  0.0000000000000000e+00 0.0000000000000000e+00 0.0000000000000000e+00  0.0000000000000000e+00 0.0000000000000000e+00 0.0000000000000000e+00  0.0000000000000000e+00 0.0000000000000000e+00 0.0000000000000000e+00  0.0000000000000000e+00 0.0000000000000000e+00 0.0000000000000000e+00  0.0000000000000000e+00 0.0000000000000000e+00 0.0000000000000000e+00  0.0000000000000000e+00 0.0000000000000000e+00 0.0000000000000000e+00  0.0000000000000000e+00 0.0000000000000000e+00 0.0000000000000000e+00  0.0000000000000000e+00 0.0000000000000000e+00 0.0000000000000000e+00  0.0000000000000000e+00 0.0000000000000000e+00 0.0000000000000000e+00  0.0000000000000000e+00 0.0000000000000000e+00 0.0000000000000000e+00  0.0000000000000000e+00 0.0000000000000000e+00 0.0000000000000000e+00  0.0000000000000000e+00 0.0000000000000000e+00 0.0000000000000000e+00  0.0000000000000000e+00 0.0000000000000000e+00 0.0000000000000000e+00  0.0000000000000000e+00 0.0000000000000000e+00 0.0000000000000000e+00  0.0000000000000000e+00 0.0000000000000000e+00 0.0000000000000000e+00  0.0000000000000000e+00 0.0000000000000000e+00 0.0000000000000000e+00  0.0000000000000000e+00 0.0000000000000000e+00 0.0000000000000000e+00  0.0000000000000000e+00 0.0000000000000000e+00 0.0000000000000000e+00  0.0000000000000000e+00 0.0000000000000000e+00 0.0000000000000000e+00  0.0000000000000000e+00 0.0000000000000000e+00 0.0000000000000000e+00  0.0000000000000000e+00 0.0000000000000000e+00 0.0000000000000000e+00  0.0000000000000000e+00 0.0000000000000000e+00 0.0000000000000000e+00  0.0000000000000000e+00 0.0000000000000000e+00 0.0000000000000000e+00  0.0000000000000000e+00 0.0000000000000000e+00 0.0000000000000000e+00  0.0000000000000000e+00 0.0000000000000000e+00 0.0000000000000000e+00  0.0000000000000000e+00 0.0000000000000000e+00 0.0000000000000000e+00  0.0000000000000000e+00 0.0000000000000000e+00 0.0000000000000000e+00  0.0000000000000000e+00 0.0000000000000000e+00 0.0000000000000000e+00  0.0000000000000000e+00 0.0000000000000000e+00 0.0000000000000000e+00  0.0000000000000000e+00 0.0000000000000000e+00 0.0000000000000000e+00  0.0000000000000000e+00 0.0000000000000000e+00 0.0000000000000000e+00  0.0000000000000000e+00 0.0000000000000000e+00 0.0000000000000000e+00  -4.8363065655567765e-06 9.6706528970707330e-09 0.0000000000000000e+00  -5.0042491865477167e-06 -7.1896942048453216e-09 0.0000000000000000e+00  -4.8429895213731109e-06 -1.9339879219566015e-08 0.0000000000000000e+00  0.0000000000000000e+00 0.0000000000000000e+00 0.0000000000000000e+00  0.0000000000000000e+00 0.0000000000000000e+00 0.0000000000000000e+00  0.0000000000000000e+00 0.0000000000000000e+00 0.0000000000000000e+00  0.0000000000000000e+00 0.0000000000000000e+00 0.0000000000000000e+00  0.0000000000000000e+00 0.0000000000000000e+00 0.0000000000000000e+00  0.0000000000000000e+00 0.0000000000000000e+00 0.0000000000000000e+00  0.0000000000000000e+00 0.0000000000000000e+00 0.0000000000000000e+00  0.0000000000000000e+00 0.0000000000000000e+00 0.0000000000000000e+00  0.0000000000000000e+00 0.0000000000000000e+00 0.0000000000000000e+00  0.0000000000000000e+00 0.0000000000000000e+00 0.0000000000000000e+00  0.0000000000000000e+00 0.0000000000000000e+00 0.0000000000000000e+00  0.0000000000000000e+00 0.0000000000000000e+00 0.0000000000000000e+00  0.0000000000000000e+00 0.0000000000000000e+00 0.0000000000000000e+00  0.0000000000000000e+00 0.0000000000000000e+00 0.0000000000000000e+00  0.0000000000000000e+00 0.0000000000000000e+00 0.0000000000000000e+00  0.0000000000000000e+00 0.0000000000000000e+00 0.0000000000000000e+00  0.0000000000000000e+00 0.0000000000000000e+00 0.0000000000000000e+00  0.0000000000000000e+00 0.0000000000000000e+00 0.0000000000000000e+00  0.0000000000000000e+00 0.0000000000000000e+00 0.0000000000000000e+00  0.0000000000000000e+00 0.0000000000000000e+00 0.0000000000000000e+00  0.0000000000000000e+00 0.0000000000000000e+00 0.0000000000000000e+00  0.0000000000000000e+00 0.0000000000000000e+00 0.0000000000000000e+00  0.0000000000000000e+00 0.0000000000000000e+00 0.0000000000000000e+00  0.0000000000000000e+00 0.0000000000000000e+00 0.0000000000000000e+00  0.0000000000000000e+00 0.0000000000000000e+00 0.0000000000000000e+00  0.0000000000000000e+00 0.0000000000000000e+00 0.0000000000000000e+00  0.0000000000000000e+00 0.0000000000000000e+00 0.0000000000000000e+00  0.0000000000000000e+00 0.0000000000000000e+00 0.0000000000000000e+00  0.0000000000000000e+00 0.0000000000000000e+00 0.0000000000000000e+00  0.0000000000000000e+00 0.0000000000000000e+00 0.0000000000000000e+00  0.0000000000000000e+00 0.0000000000000000e+00 0.0000000000000000e+00  0.0000000000000000e+00 0.0000000000000000e+00 0.0000000000000000e+00  0.0000000000000000e+00 0.0000000000000000e+00 0.0000000000000000e+00  0.0000000000000000e+00 0.0000000000000000e+00 0.0000000000000000e+00  0.0000000000000000e+00 0.0000000000000000e+00 0.0000000000000000e+00  0.0000000000000000e+00 0.0000000000000000e+00 0.0000000000000000e+00  0.0000000000000000e+00 0.0000000000000000e+00 0.0000000000000000e+00  0.0000000000000000e+00 0.0000000000000000e+00 0.0000000000000000e+00  0.0000000000000000e+00 0.0000000000000000e+00 0.0000000000000000e+00  0.0000000000000000e+00 0.0000000000000000e+00 0.0000000000000000e+00  0.0000000000000000e+00 0.0000000000000000e+00 0.0000000000000000e+00  0.0000000000000000e+00 0.0000000000000000e+00 0.0000000000000000e+00  0.0000000000000000e+00 0.0000000000000000e+00 0.0000000000000000e+00  0.0000000000000000e+00 0.0000000000000000e+00 0.0000000000000000e+00  0.0000000000000000e+00 0.0000000000000000e+00 0.0000000000000000e+00  0.0000000000000000e+00 0.0000000000000000e+00 0.0000000000000000e+00  0.0000000000000000e+00 0.0000000000000000e+00 0.0000000000000000e+00  0.0000000000000000e+00 0.0000000000000000e+00 0.0000000000000000e+00  0.0000000000000000e+00 0.0000000000000000e+00 0.0000000000000000e+00  0.0000000000000000e+00 0.0000000000000000e+00 0.0000000000000000e+00  0.0000000000000000e+00 0.0000000000000000e+00 0.0000000000000000e+00  0.0000000000000000e+00 0.0000000000000000e+00 0.0000000000000000e+00  0.0000000000000000e+00 0.0000000000000000e+00 0.0000000000000000e+00  0.0000000000000000e+00 0.0000000000000000e+00 0.0000000000000000e+00  0.0000000000000000e+00 0.0000000000000000e+00 0.0000000000000000e+00  0.0000000000000000e+00 0.0000000000000000e+00 0.0000000000000000e+00  0.0000000000000000e+00 0.0000000000000000e+00 0.0000000000000000e+00  0.0000000000000000e+00 0.0000000000000000e+00 0.0000000000000000e+00  0.0000000000000000e+00 0.0000000000000000e+00 0.0000000000000000e+00  0.0000000000000000e+00 0.0000000000000000e+00 0.0000000000000000e+00  0.0000000000000000e+00 0.0000000000000000e+00 0.0000000000000000e+00  0.0000000000000000e+00 0.0000000000000000e+00 0.0000000000000000e+00  0.0000000000000000e+00 0.0000000000000000e+00 0.0000000000000000e+00  0.0000000000000000e+00 0.0000000000000000e+00 0.0000000000000000e+00  0.0000000000000000e+00 0.0000000000000000e+00 0.0000000000000000e+00  0.0000000000000000e+00 0.0000000000000000e+00 0.0000000000000000e+00  0.0000000000000000e+00 0.0000000000000000e+00 0.0000000000000000e+00  0.0000000000000000e+00 0.0000000000000000e+00 0.0000000000000000e+00  0.0000000000000000e+00 0.0000000000000000e+00 0.0000000000000000e+00  0.0000000000000000e+00 0.0000000000000000e+00 0.0000000000000000e+00  0.0000000000000000e+00 0.0000000000000000e+00 0.0000000000000000e+00  0.0000000000000000e+00 0.0000000000000000e+00 0.0000000000000000e+00  0.0000000000000000e+00 0.0000000000000000e+00 0.0000000000000000e+00  0.0000000000000000e+00 0.0000000000000000e+00 0.0000000000000000e+00  0.0000000000000000e+00 0.0000000000000000e+00 0.0000000000000000e+00  0.0000000000000000e+00 0.0000000000000000e+00 0.0000000000000000e+00  0.0000000000000000e+00 0.0000000000000000e+00 0.0000000000000000e+00  0.0000000000000000e+00 0.0000000000000000e+00 0.0000000000000000e+00  -6.3202948298472263e-04 1.4334644600860072e-02 0.0000000000000000e+00  9.4671772499749871e-03 1.7714880787262039e-02 0.0000000000000000e+00  2.4322632244574670e-03 7.0355428972657830e-03 0.0000000000000000e+00  2.3482405946303772e-03 1.9075232208333342e-03 0.0000000000000000e+00  5.9404146515491525e-04 2.0330030750894692e-03 0.0000000000000000e+00  -3.9367967793976257e-04 2.3366458080220582e-03 0.0000000000000000e+00  4.0821325004037376e-04 4.0325918199264040e-03 0.0000000000000000e+00  2.7417259105453576e-04 2.4040253001065956e-03 0.0000000000000000e+00  1.0630342573914964e-03 1.3386753223413709e-03 0.0000000000000000e+00  -1.1140325065891520e-03 1.3973968362394080e-03 0.0000000000000000e+00  9.0763649364930228e-04 1.0302987669489345e-03 0.0000000000000000e+00  -1.1254700626009057e-03 7.8046309538643921e-04 0.0000000000000000e+00  -3.3214176397795928e-04 2.3264652361397638e-03 0.0000000000000000e+00  8.9380750928963855e-05 4.0489901492722679e-03 0.0000000000000000e+00  1.6747948885628296e-04 2.7446872685117246e-03 0.0000000000000000e+00  1.2206295623472707e-03 1.1577562123314808e-03 0.0000000000000000e+00  -9.0481071702998035e-04 1.1454477763939933e-03 0.0000000000000000e+00  1.0310342616568317e-03 1.1944502465265009e-03 0.0000000000000000e+00  -8.7867473184793086e-04 1.0113523158676919e-03 0.0000000000000000e+00  9.0756338118909744e-04 1.1500405707398820e-03 0.0000000000000000e+00  -1.1046823207783497e-03 8.9138751913446078e-04 0.0000000000000000e+00  -4.2557855818241183e-04 2.5754452156134121e-03 0.0000000000000000e+00  9.1598352314333970e-05 4.0287826377182869e-03 0.0000000000000000e+00  2.8614961082382286e-04 1.8495633826700480e-03 0.0000000000000000e+00  9.7840648567545496e-04 6.8072534188147037e-04 0.0000000000000000e+00  -6.5755921177959684e-04 2.4993620566096593e-04 0.0000000000000000e+00  8.6232611523431467e-04 4.1381620039300304e-04 0.0000000000000000e+00  -5.3563706771970272e-04 1.5889187827844081e-04 0.0000000000000000e+00  8.6988208964477380e-04 1.8830583381475492e-04 0.0000000000000000e+00  -4.3567979597021299e-04 1.4017531040921651e-04 0.0000000000000000e+00  6.6615535377431397e-04 2.0132956192520291e-04 0.0000000000000000e+00  -6.2997234855521010e-04 1.1060955244801757e-04 0.0000000000000000e+00  8.8190464242659400e-04 -3.0910788545352255e-04 0.0000000000000000e+00  -3.6824208723469502e-04 -4.3632957464301818e-04 0.0000000000000000e+00  9.8303625245051173e-04 1.4252481399964795e-05 0.0000000000000000e+00  -3.1270474556401679e-04 3.5794974550273456e-04 0.0000000000000000e+00  8.7175515978386766e-04 1.5238814320331655e-04 0.0000000000000000e+00  -3.4595473700407711e-04 -4.2550779581766599e-04 0.0000000000000000e+00  9.4764618541602879e-04 -4.7531915225782921e-04 0.0000000000000000e+00  -4.2967803309688077e-04 -3.0002738121040300e-04 0.0000000000000000e+00  4.8969075129469105e-04 9.6385201198478755e-05 0.0000000000000000e+00  -3.1500055375520858e-04 1.9712111024903800e-03 0.0000000000000000e+00  1.5349059627175116e-03 1.4045540153619733e-04 0.0000000000000000e+00  5.3831442372285847e-04 -5.4086892027661990e-04 0.0000000000000000e+00  -7.1090711870599717e-04 -5.1112054472458941e-05 0.0000000000000000e+00  2.4955923833929307e-04 9.1002409571136890e-04 0.0000000000000000e+00  3.5440749968265978e-04 -5.9845083160873987e-05 0.0000000000000000e+00  8.1914003986921068e-04 -4.0518669951892213e-03 0.0000000000000000e+00  -2.6545333847994120e-04 2.4453170954773285e-03 0.0000000000000000e+00  4.4258517644955988e-04 -1.1431735341583956e-03 0.0000000000000000e+00  -9.2256013872209751e-04 -1.2607086865504427e-03 0.0000000000000000e+00  -1.5548552570884778e-03 -1.4961387784137556e-04 0.0000000000000000e+00  2.0043761015058810e-04 1.9554630143752564e-03 0.0000000000000000e+00  -5.5004390061706937e-04 4.5899863733571677e-04 0.0000000000000000e+00  3.8503105642982715e-04 -9.9016271905553901e-05 0.0000000000000000e+00  -1.2698679526918777e-03 1.4828122089372185e-04 0.0000000000000000e+00  4.5137362467503178e-04 1.9300465992531507e-05 0.0000000000000000e+00  -1.2649823795448060e-03 -5.3800081179541225e-05 0.0000000000000000e+00  7.7342009264293535e-04 7.1695689641754074e-05 0.0000000000000000e+00  -1.0510881070088819e-03 5.3588642829365733e-04 0.0000000000000000e+00  7.2475344352207342e-04 5.5996401601014854e-04 0.0000000000000000e+00  -1.0648320496201053e-03 7.5227881903803856e-04 0.0000000000000000e+00  7.7161578518415979e-04 7.0495892542888586e-04 0.0000000000000000e+00  -1.1106166469887087e-03 4.2563537320328653e-04 0.0000000000000000e+00  8.4532257318067753e-04 4.0746141524308045e-04 0.0000000000000000e+00  -1.0055238038195319e-03 7.4459976098431677e-04 0.0000000000000000e+00  9.1359125400437477e-04 1.0345193449787069e-03 0.0000000000000000e+00  -1.0615907399007128e-03 1.0763131342978877e-03 0.0000000000000000e+00  8.3548720854471296e-04 8.4295451717122905e-04 0.0000000000000000e+00  -1.0929747268993489e-03 5.2146154551420182e-04 0.0000000000000000e+00  -2.7642077696439857e-04 1.9188703266718925e-03 0.0000000000000000e+00  -1.9468074962166043e-04 3.7954153497976673e-03 0.0000000000000000e+00  3.4969311610633146e-04 2.4895471627754081e-03 0.0000000000000000e+00  9.2480047290145729e-04 8.7492429024536812e-04 0.0000000000000000e+00  -7.2646348267236139e-04 3.5335679650000623e-04 0.0000000000000000e+00  6.4908758378695607e-04 1.8538457150525040e-04 0.0000000000000000e+00  -6.8939464833813922e-04 1.4926604385021938e-04 0.0000000000000000e+00  6.5337701996538429e-04 3.6697357417458904e-04 0.0000000000000000e+00  -1.0177691703997154e-03 1.1166007436344736e-03 0.0000000000000000e+00  -3.4650301569703667e-04 2.3513873030232180e-03 0.0000000000000000e+00  -9.6499036557894568e-05 3.9934143633170134e-03 0.0000000000000000e+00  4.6236854684081374e-04 2.0022226415601129e-03 0.0000000000000000e+00  9.6427891356207836e-04 5.9863429881723410e-04 0.0000000000000000e+00  -5.9917644215376606e-04 5.6175688910964664e-04 0.0000000000000000e+00  7.5107602141908107e-04 8.6488509013892630e-04 0.0000000000000000e+00  -9.7383384687973790e-04 1.2568614871197655e-03 0.0000000000000000e+00  -4.1523584912929104e-04 2.0175950229318136e-03 0.0000000000000000e+00  -4.2928876133346773e-04 4.0024357377379501e-03 0.0000000000000000e+00  4.7492590702715392e-04 2.2872846251391923e-03 0.0000000000000000e+00  -4.4247324729334214e-04 1.7671539658753548e-03 0.0000000000000000e+00  -2.3659657546226199e-03 2.0151628156007463e-03 0.0000000000000000e+00  -2.1622262371822055e-03 6.5515809593909395e-03 0.0000000000000000e+00  -8.9666542822022452e-03 1.7192281505123842e-02 0.0000000000000000e+00  4.2099066868710644e-04 1.3725623063133055e-02 0.0000000000000000e+00  1.2339729175355100e-04 2.1919935247555880e-02 0.0000000000000000e+00  -3.4536788033519262e-04 8.2171902157429349e-03 0.0000000000000000e+00  -7.1756091251461271e-05 8.5267433188666950e-03 0.0000000000000000e+00  1.1309040526601790e-04 1.0351963565950072e-02 0.0000000000000000e+00  -7.9905461973198927e-05 1.7798370062874078e-02 0.0000000000000000e+00  -3.0384861607392823e-05 1.1449391456623293e-02 0.0000000000000000e+00  2.8518825716903012e-05 1.3432594569497731e-02 0.0000000000000000e+00  1.9390359620043873e-05 1.1913660064137939e-02 0.0000000000000000e+00  1.4578778878587717e-04 1.3576265787834350e-02 0.0000000000000000e+00  -2.2301448089782438e-06 1.3941843804213979e-02 0.0000000000000000e+00  -2.0392162424175168e-05 1.2476652552788159e-02 0.0000000000000000e+00  1.9376031190715434e-04 1.3476918866365619e-02 0.0000000000000000e+00  3.2801442382554769e-05 1.3235781595487614e-02 0.0000000000000000e+00  -1.6142398541145890e-04 1.3732482054762189e-02 0.0000000000000000e+00  4.0617308047091661e-05 1.3903739395475458e-02 0.0000000000000000e+00  3.5176585525529473e-05 1.3315121590640584e-02 0.0000000000000000e+00  7.5770007940388515e-05 1.2792037211292035e-02 0.0000000000000000e+00  -3.5218152717296505e-05 1.3700762487001321e-02 0.0000000000000000e+00  6.7103911860933154e-05 1.3407738100147969e-02 0.0000000000000000e+00  -1.9102925090472766e-05 1.3217891088605188e-02 0.0000000000000000e+00  -8.9593146748904675e-05 1.3381879118905102e-02 0.0000000000000000e+00  1.4094920123078339e-04 9.5150406475537699e-03 0.0000000000000000e+00  2.2286554822614274e-06 9.8172247568111461e-03 0.0000000000000000e+00  -5.5149853116770482e-05 6.0641492628326658e-03 0.0000000000000000e+00  -1.7390200915226193e-05 9.5697320062679975e-03 0.0000000000000000e+00  3.5073994862765557e-04 4.3406648233767827e-03 0.0000000000000000e+00  3.5003917953595146e-03 1.8483365768203284e-02 0.0000000000000000e+00  -1.4505726007363700e-04 7.8563679671524913e-03 0.0000000000000000e+00  -2.2113766068785349e-04 7.3902123429612880e-03 0.0000000000000000e+00  1.7252970384162526e-03 1.0430348929659175e-02 0.0000000000000000e+00  -1.4596699610394155e-04 9.8726089826242733e-03 0.0000000000000000e+00  -2.5047022700731908e-05 9.0243267188115876e-03 0.0000000000000000e+00  -9.9216337957136946e-05 8.3824277908630795e-03 0.0000000000000000e+00  -4.3496965925580269e-05 9.6748038880698616e-03 0.0000000000000000e+00  -5.7084918488593087e-06 9.1679362779215467e-03 0.0000000000000000e+00  8.6828739933323803e-05 9.7302864937110402e-03 0.0000000000000000e+00  1.0063244399080504e-04 9.6521584029496971e-03 0.0000000000000000e+00  1.4217821901228381e-05 9.3222373749055204e-03 0.0000000000000000e+00  -9.6344342430761367e-06 8.5722193522869521e-03 0.0000000000000000e+00  1.4445839535418193e-04 9.6093714120034143e-03 0.0000000000000000e+00  1.2320588643123040e-04 9.2866315172785950e-03 0.0000000000000000e+00  -8.5835709158681838e-03 3.1482499471994198e-02 0.0000000000000000e+00  8.7584252446436719e-03 3.1727523068109990e-02 0.0000000000000000e+00  -1.8256467158501097e-03 6.3964731565401617e-03 0.0000000000000000e+00  -3.7844032258253424e-03 1.8708549409038166e-02 0.0000000000000000e+00  -7.2986914714027635e-05 9.6961751429751747e-03 0.0000000