<?xml version="1.0"?>
<VTKFile type="UnstructuredGrid"  version="0.1"  >
<UnstructuredGrid>
<Piece  NumberOfPoints="1419" NumberOfCells="2698">
<Points>
<DataArray  type="Float64"  NumberOfComponents="3"  format="ascii">1.084481924493058e-08 -1.30103399184613e-06 0  2.619165559022998e-08 0.4099986932713149 0  2.500000044732851 -1.912161048716516e-06 0  2.500000044732864 0.4099980878389673 0  0.6000000487887914 0.1899980253741113 0  0.6000000604285993 0.2099980269014197 0  0.25 0.2 0  0.1500000180760256 0.1999987080425614 0  0.2489897948556636 0.21 0  0.2489897948556636 0.19 0  0.6000000572005794 0.1999980183618133 0  2.601632166273109e-08 0.3807129793700906 0  2.55171078381536e-08 0.3514272661302321 0  2.467903367306473e-08 0.3221415533966701 0  2.350382795227808e-08 0.2928558408346283 0  2.205168507373788e-08 0.2635701281863891 0  2.037886461109153e-08 0.2342844152793594 0  1.855368163586232e-08 0.2049987018546397 0  1.672438808825831e-08 0.1757129879556097 0  1.502312044869534e-08 0.1464272735335218 0  1.353363805214396e-08 0.1171415586856708 0  1.237143545385139e-08 0.08785584356942282 0  1.151455226962364e-08 0.05857012841555623 0  1.100650476419478e-08 0.02928441347867455 0  0.03015444827737584 -1.301289529293211e-06 0  0.06140002998214016 -1.302215588516277e-06 0  0.09377624991560625 -1.304316680336045e-06 0  0.127324003525381 -1.308474166853289e-06 0  0.1620856921199227 -1.316271675467294e-06 0  0.1981052476072404 -1.331595102475699e-06 0  0.2354281868764046 -1.360258559419149e-06 0  0.2741016597238387 -1.406013228982979e-06 0  0.3141745547009459 -1.46939219749757e-06 0  0.3556974973567134 -1.547904267537498e-06 0  0.3987229626890615 -1.632196765792792e-06 0  0.4433053190772938 -1.712526411148558e-06 0  0.4895008955454879 -1.782481563999239e-06 0  0.5373680868190932 -1.836381513136007e-06 0  0.5869673658707745 -1.872467688841786e-06 0  0.6383614037952371 -1.894421150451639e-06 0  0.6916151531681412 -1.905216787062497e-06 0  0.7467959009386598 -1.909936172478663e-06 0  0.80397338907493 -1.911838183093059e-06 0  0.8632198574380847 -1.912454615339488e-06 0  0.9246101766719748 -1.912548432934111e-06 0  0.9882219253707225 -1.912472192843546e-06 0  1.054135490023388 -1.912379497602735e-06 0  1.122434145115205 -1.912302170547368e-06 0  1.193204221782491 -1.912246062714546e-06 0  1.266535134561065 -1.91221023506825e-06 0  1.342519560750391 -1.912189133117167e-06 0  1.421253493220925 -1.912176628484928e-06 0  1.502836433830778 -1.912169288217095e-06 0  1.587371484487363 -1.91216533362963e-06 0  1.674965463508015 -1.912163239991817e-06 0  1.765729046557309 -1.912162125528775e-06 0  1.859776953612399 -1.912161577592204e-06 0  1.957228022219669 -1.912161290261431e-06 0  2.058205374602682 -1.912161159450084e-06 0  2.162836635922757 -1.912161092689525e-06 0  2.271254002023698 -1.912161064399885e-06 0  2.383594491536271 -1.912161052292848e-06 0  2.500000044732851 0.1024980878387148 0  2.500000044732858 0.2049980878384334 0  2.500000044732864 0.3074980878386832 0  2.383594491536525 0.4099980878389708 0  2.271254002024196 0.4099980878389832 0  2.16283663592351 0.4099980878390128 0  2.058205374603752 0.4099980878390765 0  1.957228022221173 0.4099980878392059 0  1.859776953614655 0.4099980878395074 0  1.765729046560812 0.4099980878400535 0  1.674965463513941 0.4099980878412143 0  1.587371484497636 0.4099980878433144 0  1.502836433849172 0.4099980878473152 0  1.42125349325459 0.4099980878550503 0  1.342519560809962 0.4099980878681954 0  1.266535134665103 0.4099980878911915 0  1.193204221966182 0.4099980879345282 0  1.122434145433334 0.4099980880123191 0  1.05413549054979 0.4099980881425414 0  0.9882219262500272 0.4099980884009012 0  0.9246101780915825 0.4099980888761173 0  0.8632198597107706 0.4099980897876936 0  0.8039733926331272 0.4099980916141729 0  0.7467959063976349 0.4099980952840215 0  0.6916151612695938 0.4099981024456423 0  0.6383614154357118 0.4099981164131096 0  0.5869673819720655 0.4099981404718062 0  0.5373681079401499 0.4099981777641386 0  0.4895009219320055 0.4099982310394841 0  0.443305350451941 0.4099982976770419 0  0.3987229980368583 0.4099983731816353 0  0.355697535006308 0.4099984513963374 0  0.3141745926863304 0.4099985244254482 0  0.274101695940364 0.4099985850223126 0  0.2354282199444527 0.4099986285422803 0  0.1981052767359199 0.4099986571354143 0  0.1620857172255306 0.4099986739066748 0  0.1273240250814601 0.409998683258966 0  0.09377626866872538 0.4099986886477335 0  0.06140004679122505 0.4099986914504845 0  0.03015446395468202 0.4099986929073025 0  0.2497468076502589 0.2050254481002335 0  0.2497468076502614 0.1949745518997913 0  0.2469965135431562 0.1829310728940171 0  0.243989361882594 0.1762307785766491 0  0.2400332047695143 0.1700433457325099 0  0.2352133893425433 0.164502211713707 0  0.2296338958203102 0.1597268919978987 0  0.2234150936496049 0.155820398693621 0  0.2166911445038125 0.1528670026556998 0  0.2096071078774503 0.1509304154280398 0  0.2023158117558282 0.1500524120798203 0  0.1949745552649964 0.1502519336816667 0  0.1877417155156813 0.1515246736769548 0  0.1807733305565681 0.1538431739532196 0  0.1742197333170463 0.1571574151189072 0  0.1682223081642853 0.1613958968918059 0  0.1629104409723569 0.166467179537979 0  0.1583987275746489 0.172261857310165 0  0.1547845017497521 0.1786549181091673 0  0.1521457351782765 0.1855084408077919 0  0.1505393555240806 0.1926745704157715 0  0.1505393583290286 0.2073228459702549 0  0.1521457408154229 0.2144889765212968 0  0.1547845101601553 0.2213425008542644 0  0.158398738803759 0.2277355641835587 0  0.162910454978066 0.233530245545888 0  0.1682223250036151 0.2386015333712213 0  0.1742197529342039 0.2428400221099382 0  0.1807733530027891 0.246154272939134 0  0.1877417407879967 0.2484727864965361 0  0.1949745833837516 0.2497455447925871 0  0.2023158426911489 0.2499450905821717 0  0.2096071416941321 0.2490671209924485 0  0.216691181112432 0.247130578194511 0  0.2234151330381227 0.2441772442315569 0  0.229633937845219 0.240270835142136 0  0.2352134336557232 0.2354956345603456 0  0.2400332506322149 0.2299546673144169 0  0.2439894072325128 0.2237674978950744 0  0.2469965526573465 0.2170676553166916 0  0.2564581324222766 0.2099993799437068 0  0.2639264433839864 0.2099991699609967 0  0.271394752651793 0.209999033097281 0  0.2788630544255833 0.2099989274016071 0  0.286331357444733 0.2099988397664511 0  0.2937996603450652 0.2099987627204812 0  0.3012679625616178 0.2099986926038676 0  0.3087362637822852 0.2099986407225013 0  0.3162045696955159 0.2099985912683931 0  0.3236728700231211 0.2099985454205293 0  0.3311411763633645 0.2099985038917128 0  0.3386094759087567 0.2099984656662547 0  0.3460777811527859 0.209998428864578 0  0.3535460812871592 0.2099983887494347 0  0.3610143813046808 0.209998369020535 0  0.3684826853240954 0.2099983456336023 0  0.3759509837203019 0.2099983209701047 0  0.3834192874414447 0.2099982979231615 0  0.3908875856028289 0.2099982755173121 0  0.3983558893250433 0.2099982544235214 0  0.4058241870838495 0.2099982331861394 0  0.4132924902860203 0.2099982107154096 0  0.4207607881632877 0.2099981831976941 0  0.4282290876450157 0.2099981727237074 0  0.4356973909398988 0.2099981578907863 0  0.4431656901306167 0.2099981415310442 0  0.450633994027195 0.2099981249310773 0  0.4581022932844286 0.2099981090686794 0  0.4655705979655947 0.2099980937907654 0  0.4730388972176527 0.2099980791743683 0  0.4805072026871198 0.209998064964676 0  0.487975502637052 0.2099980516130549 0  0.4954438093430316 0.2099980380637999 0  0.5029121095029917 0.2099980271079391 0  0.5103804166234219 0.2099980181314192 0  0.5178487174521236 0.2099980101347446 0  0.5253170263229012 0.2099980019355148 0  0.5327853274514724 0.2099979941598812 0  0.5402536364842662 0.2099979883445114 0  0.5477219383232136 0.2099979849748616 0  0.5551902479710462 0.2099979795956743 0  0.5626585510896926 0.2099979690560673 0  0.5701268522058882 0.2099979859589456 0  0.5775951600143203 0.2099979969792996 0  0.5850634602966247 0.2099980034261956 0  0.5925317636477576 0.209998014539146 0  0.6000000616293735 0.2049980209738633 0  0.6000000509016179 0.1949980221006949 0  0.5925317457501983 0.1899980123791254 0  0.5850634464266262 0.1899979984714476 0  0.5775951399619648 0.1899979869201628 0  0.5701268396550141 0.1899979757493887 0  0.5626585339011961 0.1899979598260377 0  0.5551902265592858 0.1899979676630956 0  0.5477219261358961 0.1899979696104924 0  0.5402536170908295 0.189997971844176 0  0.532785316918556 0.1899979760162969 0  0.5253170070190677 0.1899979819759526 0  0.5178487054660519 0.1899979894077296 0  0.5103803961219912 0.1899979979801129 0  0.5029120957350622 0.18999800767546 0  0.4954437867657029 0.1899980190482539 0  0.4879754863380601 0.1899980319235481 0  0.4805071777083629 0.1899980460195492 0  0.4730388763512519 0.1899980608588886 0  0.4655705682414989 0.1899980766139022 0  0.4581022678656599 0.1899980930270304 0  0.4506339608213188 0.1899981102090414 0  0.4431656603698905 0.1899981280078063 0  0.435697353228813 0.1899981462247127 0  0.4282290517110826 0.1899981636674997 0  0.4207607455819497 0.1899981766192998 0  0.4132924405424 0.1899982052547856 0  0.405824139888205 0.1899982303427188 0  0.3983558344549339 0.18999825312646 0  0.3908875331879205 0.189998276357584 0  0.3834192274864716 0.1899982999130455 0  0.3759509258747196 0.189998324076527 0  0.3684826203183726 0.1899983491140528 0  0.3610143194233956 0.1899983726826766 0  0.3535460138094567 0.1899983937447374 0  0.3460777071526179 0.1899984339927649 0  0.3386094055510592 0.1899984722377779 0  0.3311410989428923 0.1899985108761211 0  0.3236727982751875 0.1899985524552405 0  0.3162044928109566 0.1899985980068207 0  0.3087361924420736 0.1899986465091298 0  0.3012678874500943 0.1899986978245305 0  0.2937995843985891 0.189998767073903 0  0.2863312821689431 0.1899988435599064 0  0.278862980020801 0.1899989307222678 0  0.2713946744439061 0.1899990368727335 0  0.2639263744924317 0.1899991758139558 0  0.256458075075744 0.1899993839912392
[...]
<PointData  Vectors="f_30-0"> 
<DataArray  type="Float64"  Name="f_30-0"  NumberOfComponents="3" format="ascii">0.0000000000000000e+00 0.0000000000000000e+00 0.0000000000000000e+00  0.0000000000000000e+00 0.0000000000000000e+00 0.0000000000000000e+00  0.0000000000000000e+00 0.0000000000000000e+00 0.0000000000000000e+00  0.0000000000000000e+00 0.0000000000000000e+00 0.0000000000000000e+00  1.2344726464549894e-02 -6.2433458303074042e-02 0.0000000000000000e+00  3.1865913436566473e-02 -5.6192915348890184e-02 0.0000000000000000e+00  0.0000000000000000e+00 0.0000000000000000e+00 0.0000000000000000e+00  0.0000000000000000e+00 0.0000000000000000e+00 0.0000000000000000e+00  0.0000000000000000e+00 0.0000000000000000e+00 0.0000000000000000e+00  0.0000000000000000e+00 0.0000000000000000e+00 0.0000000000000000e+00  6.2227027297594772e-02 -1.4383419933126690e-01 0.0000000000000000e+00  0.0000000000000000e+00 0.0000000000000000e+00 0.0000000000000000e+00  0.0000000000000000e+00 0.0000000000000000e+00 0.0000000000000000e+00  0.0000000000000000e+00 0.0000000000000000e+00 0.0000000000000000e+00  0.0000000000000000e+00 0.0000000000000000e+00 0.0000000000000000e+00  0.0000000000000000e+00 0.0000000000000000e+00 0.0000000000000000e+00  0.0000000000000000e+00 0.0000000000000000e+00 0.0000000000000000e+00  0.0000000000000000e+00 0.0000000000000000e+00 0.0000000000000000e+00  0.0000000000000000e+00 0.0000000000000000e+00 0.0000000000000000e+00  0.0000000000000000e+00 0.0000000000000000e+00 0.0000000000000000e+00  0.0000000000000000e+00 0.0000000000000000e+00 0.0000000000000000e+00  0.0000000000000000e+00 0.0000000000000000e+00 0.0000000000000000e+00  0.0000000000000000e+00 0.0000000000000000e+00 0.0000000000000000e+00  0.0000000000000000e+00 0.0000000000000000e+00 0.0000000000000000e+00  0.0000000000000000e+00 0.0000000000000000e+00 0.0000000000000000e+00  0.0000000000000000e+00 0.0000000000000000e+00 0.0000000000000000e+00  0.0000000000000000e+00 0.0000000000000000e+00 0.0000000000000000e+00  0.0000000000000000e+00 0.0000000000000000e+00 0.0000000000000000e+00  0.0000000000000000e+00 0.0000000000000000e+00 0.0000000000000000e+00  0.0000000000000000e+00 0.0000000000000000e+00 0.0000000000000000e+00  0.0000000000000000e+00 0.0000000000000000e+00 0.0000000000000000e+00  0.0000000000000000e+00 0.0000000000000000e+00 0.0000000000000000e+00  0.0000000000000000e+00 0.0000000000000000e+00 0.0000000000000000e+00  0.0000000000000000e+00 0.0000000000000000e+00 0.0000000000000000e+00  0.0000000000000000e+00 0.0000000000000000e+00 0.0000000000000000e+00  0.0000000000000000e+00 0.0000000000000000e+00 0.0000000000000000e+00  0.0000000000000000e+00 0.0000000000000000e+00 0.0000000000000000e+00  0.0000000000000000e+00 0.0000000000000000e+00 0.0000000000000000e+00  0.0000000000000000e+00 0.0000000000000000e+00 0.0000000000000000e+00  0.0000000000000000e+00 0.0000000000000000e+00 0.0000000000000000e+00  0.0000000000000000e+00 0.0000000000000000e+00 0.0000000000000000e+00  0.0000000000000000e+00 0.0000000000000000e+00 0.0000000000000000e+00  0.0000000000000000e+00 0.0000000000000000e+00 0.0000000000000000e+00  0.0000000000000000e+00 0.0000000000000000e+00 0.0000000000000000e+00  0.0000000000000000e+00 0.0000000000000000e+00 0.0000000000000000e+00  0.0000000000000000e+00 0.0000000000000000e+00 0.0000000000000000e+00  0.0000000000000000e+00 0.0000000000000000e+00 0.0000000000000000e+00  0.0000000000000000e+00 0.0000000000000000e+00 0.0000000000000000e+00  0.0000000000000000e+00 0.0000000000000000e+00 0.0000000000000000e+00  0.0000000000000000e+00 0.0000000000000000e+00 0.0000000000000000e+00  0.0000000000000000e+00 0.0000000000000000e+00 0.0000000000000000e+00  0.0000000000000000e+00 0.0000000000000000e+00 0.0000000000000000e+00  0.0000000000000000e+00 0.0000000000000000e+00 0.0000000000000000e+00  0.0000000000000000e+00 0.0000000000000000e+00 0.0000000000000000e+00  0.0000000000000000e+00 0.0000000000000000e+00 0.0000000000000000e+00  0.0000000000000000e+00 0.0000000000000000e+00 0.0000000000000000e+00  0.0000000000000000e+00 0.0000000000000000e+00 0.0000000000000000e+00  0.0000000000000000e+00 0.0000000000000000e+00 0.0000000000000000e+00  0.0000000000000000e+00 0.0000000000000000e+00 0.0000000000000000e+00  0.0000000000000000e+00 0.0000000000000000e+00 0.0000000000000000e+00  0.0000000000000000e+00 0.0000000000000000e+00 0.0000000000000000e+00  0.0000000000000000e+00 0.0000000000000000e+00 0.0000000000000000e+00  6.2677301060118547e-09 2.0305401364524350e-09 0.0000000000000000e+00  -2.1534072621097776e-10 2.7029890704417663e-09 0.0000000000000000e+00  -6.5375428897509810e-09 2.4523753950889257e-09 0.0000000000000000e+00  0.0000000000000000e+00 0.0000000000000000e+00 0.0000000000000000e+00  0.0000000000000000e+00 0.0000000000000000e+00 0.0000000000000000e+00  0.0000000000000000e+00 0.0000000000000000e+00 0.0000000000000000e+00  0.0000000000000000e+00 0.0000000000000000e+00 0.0000000000000000e+00  0.0000000000000000e+00 0.0000000000000000e+00 0.0000000000000000e+00  0.0000000000000000e+00 0.0000000000000000e+00 0.0000000000000000e+00  0.0000000000000000e+00 0.0000000000000000e+00 0.0000000000000000e+00  0.0000000000000000e+00 0.0000000000000000e+00 0.0000000000000000e+00  0.0000000000000000e+00 0.0000000000000000e+00 0.0000000000000000e+00  0.0000000000000000e+00 0.0000000000000000e+00 0.0000000000000000e+00  0.0000000000000000e+00 0.0000000000000000e+00 0.0000000000000000e+00  0.0000000000000000e+00 0.0000000000000000e+00 0.0000000000000000e+00  0.0000000000000000e+00 0.0000000000000000e+00 0.0000000000000000e+00  0.0000000000000000e+00 0.0000000000000000e+00 0.0000000000000000e+00  0.0000000000000000e+00 0.0000000000000000e+00 0.0000000000000000e+00  0.0000000000000000e+00 0.0000000000000000e+00 0.0000000000000000e+00  0.0000000000000000e+00 0.0000000000000000e+00 0.0000000000000000e+00  0.0000000000000000e+00 0.0000000000000000e+00 0.0000000000000000e+00  0.0000000000000000e+00 0.0000000000000000e+00 0.0000000000000000e+00  0.0000000000000000e+00 0.0000000000000000e+00 0.0000000000000000e+00  0.0000000000000000e+00 0.0000000000000000e+00 0.0000000000000000e+00  0.0000000000000000e+00 0.0000000000000000e+00 0.0000000000000000e+00  0.0000000000000000e+00 0.0000000000000000e+00 0.0000000000000000e+00  0.0000000000000000e+00 0.0000000000000000e+00 0.0000000000000000e+00  0.0000000000000000e+00 0.0000000000000000e+00 0.0000000000000000e+00  0.0000000000000000e+00 0.0000000000000000e+00 0.0000000000000000e+00  0.0000000000000000e+00 0.0000000000000000e+00 0.0000000000000000e+00  0.0000000000000000e+00 0.0000000000000000e+00 0.0000000000000000e+00  0.0000000000000000e+00 0.0000000000000000e+00 0.0000000000000000e+00  0.0000000000000000e+00 0.0000000000000000e+00 0.0000000000000000e+00  0.0000000000000000e+00 0.0000000000000000e+00 0.0000000000000000e+00  0.0000000000000000e+00 0.0000000000000000e+00 0.0000000000000000e+00  0.0000000000000000e+00 0.0000000000000000e+00 0.0000000000000000e+00  0.0000000000000000e+00 0.0000000000000000e+00 0.0000000000000000e+00  0.0000000000000000e+00 0.0000000000000000e+00 0.0000000000000000e+00  0.0000000000000000e+00 0.0000000000000000e+00 0.0000000000000000e+00  0.0000000000000000e+00 0.0000000000000000e+00 0.0000000000000000e+00  0.0000000000000000e+00 0.0000000000000000e+00 0.0000000000000000e+00  0.0000000000000000e+00 0.0000000000000000e+00 0.0000000000000000e+00  0.0000000000000000e+00 0.0000000000000000e+00 0.0000000000000000e+00  0.0000000000000000e+00 0.0000000000000000e+00 0.0000000000000000e+00  0.0000000000000000e+00 0.0000000000000000e+00 0.0000000000000000e+00  0.0000000000000000e+00 0.0000000000000000e+00 0.0000000000000000e+00  0.0000000000000000e+00 0.0000000000000000e+00 0.0000000000000000e+00  0.0000000000000000e+00 0.0000000000000000e+00 0.0000000000000000e+00  0.0000000000000000e+00 0.0000000000000000e+00 0.0000000000000000e+00  0.0000000000000000e+00 0.0000000000000000e+00 0.0000000000000000e+00  0.0000000000000000e+00 0.0000000000000000e+00 0.0000000000000000e+00  0.0000000000000000e+00 0.0000000000000000e+00 0.0000000000000000e+00  0.0000000000000000e+00 0.0000000000000000e+00 0.0000000000000000e+00  0.0000000000000000e+00 0.0000000000000000e+00 0.0000000000000000e+00  0.0000000000000000e+00 0.0000000000000000e+00 0.0000000000000000e+00  0.0000000000000000e+00 0.0000000000000000e+00 0.0000000000000000e+00  0.0000000000000000e+00 0.0000000000000000e+00 0.0000000000000000e+00  0.0000000000000000e+00 0.0000000000000000e+00 0.0000000000000000e+00  0.0000000000000000e+00 0.0000000000000000e+00 0.0000000000000000e+00  0.0000000000000000e+00 0.0000000000000000e+00 0.0000000000000000e+00  0.0000000000000000e+00 0.0000000000000000e+00 0.0000000000000000e+00  0.0000000000000000e+00 0.0000000000000000e+00 0.0000000000000000e+00  0.0000000000000000e+00 0.0000000000000000e+00 0.0000000000000000e+00  0.0000000000000000e+00 0.0000000000000000e+00 0.0000000000000000e+00  0.0000000000000000e+00 0.0000000000000000e+00 0.0000000000000000e+00  0.0000000000000000e+00 0.0000000000000000e+00 0.0000000000000000e+00  0.0000000000000000e+00 0.0000000000000000e+00 0.0000000000000000e+00  0.0000000000000000e+00 0.0000000000000000e+00 0.0000000000000000e+00  0.0000000000000000e+00 0.0000000000000000e+00 0.0000000000000000e+00  0.0000000000000000e+00 0.0000000000000000e+00 0.0000000000000000e+00  0.0000000000000000e+00 0.0000000000000000e+00 0.0000000000000000e+00  0.0000000000000000e+00 0.0000000000000000e+00 0.0000000000000000e+00  0.0000000000000000e+00 0.0000000000000000e+00 0.0000000000000000e+00  0.0000000000000000e+00 0.0000000000000000e+00 0.0000000000000000e+00  0.0000000000000000e+00 0.0000000000000000e+00 0.0000000000000000e+00  0.0000000000000000e+00 0.0000000000000000e+00 0.0000000000000000e+00  0.0000000000000000e+00 0.0000000000000000e+00 0.0000000000000000e+00  0.0000000000000000e+00 0.0000000000000000e+00 0.0000000000000000e+00  0.0000000000000000e+00 0.0000000000000000e+00 0.0000000000000000e+00  0.0000000000000000e+00 0.0000000000000000e+00 0.0000000000000000e+00  0.0000000000000000e+00 0.0000000000000000e+00 0.0000000000000000e+00  9.7626716868458155e-02 3.1874631049211033e-01 0.0000000000000000e+00  7.7929054853966159e-02 2.5891472486280659e-01 0.0000000000000000e+00  8.4957230883425786e-02 1.6405077477931063e-01 0.0000000000000000e+00  3.9677439255152720e-02 5.2067523054420681e-02 0.0000000000000000e+00  3.4989120836087913e-02 -2.1585264108726831e-03 0.0000000000000000e+00  2.4801744833416774e-02 -8.6035342791532618e-02 0.0000000000000000e+00  3.3128197738758788e-02 -1.2970405329054197e-01 0.0000000000000000e+00  -8.3631579179662217e-03 -1.6214535983527081e-01 0.0000000000000000e+00  3.7649917303010323e-02 -1.7165967270278343e-01 0.0000000000000000e+00  -9.0214730893576883e-03 -1.8774223608764007e-01 0.0000000000000000e+00  3.9477290539849483e-02 -2.0464566997905004e-01 0.0000000000000000e+00  -7.4504087549105667e-03 -2.0648480754590459e-01 0.0000000000000000e+00  4.8418920410445022e-02 -2.2674250277899335e-01 0.0000000000000000e+00  7.3669498209952338e-03 -2.2591989602769608e-01 0.0000000000000000e+00  1.7570969539173721e-03 -2.1086168116666865e-01 0.0000000000000000e+00  2.2313371091962450e-02 -1.8521895300068103e-01 0.0000000000000000e+00  -2.9212840045841322e-03 -1.9824941306858876e-01 0.0000000000000000e+00  2.1382639857523079e-02 -1.8436188940972439e-01 0.0000000000000000e+00  -9.8026986176345150e-03 -1.8799039541812618e-01 0.0000000000000000e+00  2.4393760820588351e-02 -1.8955168568618927e-01 0.0000000000000000e+00  -2.0117370337978394e-02 -1.8983691875443509e-01 0.0000000000000000e+00  3.2846571784818132e-02 -1.9833017086065430e-01 0.0000000000000000e+00  -1.4420253878653517e-02 -2.0163095884847296e-01 0.0000000000000000e+00  -2.4500684529172048e-02 -2.0413376163506372e-01 0.0000000000000000e+00  -1.9572482334034382e-05 -2.1751290171017529e-01 0.0000000000000000e+00  -2.1064252797699173e-02 -2.1995655895799415e-01 0.0000000000000000e+00  -2.7223941254404605e-03 -2.3595675677457292e-01 0.0000000000000000e+00  -3.5094680777968117e-02 -2.4884428808919390e-01 0.0000000000000000e+00  1.2075280423513413e-02 -2.5349864378808379e-01 0.0000000000000000e+00  -4.7499321554425759e-02 -2.5890184344245254e-01 0.0000000000000000e+00  1.5379161085743692e-02 -2.7495177614791494e-01 0.0000000000000000e+00  -4.3988299120721899e-02 -2.7026986404609299e-01 0.0000000000000000e+00  1.0577446579307054e-02 -3.2075237591336814e-01 0.0000000000000000e+00  -3.6952611599342086e-02 -3.2137438475853314e-01 0.0000000000000000e+00  1.8911862937459566e-02 -2.9630971787640487e-01 0.0000000000000000e+00  -4.1009513451170959e-02 -2.8179010718609754e-01 0.0000000000000000e+00  2.7049115728623941e-02 -2.9220124563438715e-01 0.0000000000000000e+00  -4.2842859849553092e-02 -3.2284309290608515e-01 0.0000000000000000e+00  4.1879034011945537e-02 -3.3127479814034633e-01 0.0000000000000000e+00  -2.3736823451781880e-02 -3.0023858679851972e-01 0.0000000000000000e+00  4.9293008203278414e-02 -2.9581590147882902e-01 0.0000000000000000e+00  2.0146369326473870e-02 -2.8513883807045853e-01 0.0000000000000000e+00  -8.7477197200094350e-03 -2.5332113965485525e-01 0.0000000000000000e+00  6.0021093051779072e-02 -1.9871724936558141e-01 0.0000000000000000e+00  2.1823188545048371e-02 -2.4352685744269759e-01 0.0000000000000000e+00  1.0711492000038038e-01 -2.0558628101433699e-01 0.0000000000000000e+00  1.0509334933843155e-01 -1.5181977482535763e-01 0.0000000000000000e+00  -1.4115332840516749e-02 -1.1553527156829738e-01 0.0000000000000000e+00  3.9983520607075329e-03 -1.4012909721845793e-01 0.0000000000000000e+00  6.1264555073296582e-02 -1.9386458362025041e-01 0.0000000000000000e+00  5.1102697958230591e-03 -2.1489678627240599e-01 0.0000000000000000e+00  5.6820028935163455e-02 -2.5981157251202014e-01 0.0000000000000000e+00  2.4225944446136523e-02 -2.5484674203069080e-01 0.0000000000000000e+00  -2.3387143232088691e-02 -2.8234682215012719e-01 0.0000000000000000e+00  5.4310638294067383e-02 -2.7402406668746976e-01 0.0000000000000000e+00  -2.8894518234796447e-02 -2.8319855844370079e-01 0.0000000000000000e+00  4.6604778484179876e-02 -2.8845119306869543e-01 0.0000000000000000e+00  -3.4026630899166500e-02 -2.8807267625206479e-01 0.0000000000000000e+00  3.7828651659785092e-02 -2.8141311842052924e-01 0.0000000000000000e+00  -3.5617984466743018e-02 -2.7705700116486237e-01 0.0000000000000000e+00  3.5789523240670258e-02 -2.6983030788417395e-01 0.0000000000000000e+00  -4.0928945094523050e-02 -2.6532060201524393e-01 0.0000000000000000e+00  2.7150600595367648e-02 -2.5897988275650713e-01 0.0000000000000000e+00  -4.0026676382576419e-02 -2.5263622932006558e-01 0.0000000000000000e+00  2.2810655849401826e-02 -2.4279289140577454e-01 0.0000000000000000e+00  -3.9751188257859726e-02 -2.3315780564095084e-01 0.0000000000000000e+00  2.0327913057312807e-02 -2.1981698534427832e-01 0.0000000000000000e+00  -3.7239343396823749e-02 -2.1348083954515354e-01 0.0000000000000000e+00  1.9490702582375063e-02 -2.0918741610984878e-01 0.0000000000000000e+00  -3.3310953285339076e-02 -2.0212050456300698e-01 0.0000000000000000e+00  2.0043633322829595e-02 -2.0601718669039271e-01 0.0000000000000000e+00  -1.2647396156615661e-02 -1.9759095872721541e-01 0.0000000000000000e+00  -2.9105702232462123e-02 -1.9939055129829111e-01 0.0000000000000000e+00  5.1459508700932776e-03 -1.8447955641711425e-01 0.0000000000000000e+00  -2.4825175546594153e-02 -1.9394998346193409e-01 0.0000000000000000e+00  8.8442759657253300e-03 -1.9872230675414010e-01 0.0000000000000000e+00  -2.3222778403167374e-02 -2.0147601939501886e-01 0.0000000000000000e+00  8.5251661625934064e-03 -2.0299661998357169e-01 0.0000000000000000e+00  -2.1073296970170057e-02 -1.9839959651076747e-01 0.0000000000000000e+00  1.2097020403070658e-02 -2.1056997861554616e-01 0.0000000000000000e+00  -1.4857295224562700e-03 -2.1458955390441986e-01 0.0000000000000000e+00  -4.8316834004925709e-02 -2.2574815276567073e-01 0.0000000000000000e+00  8.2758765969467747e-03 -2.0789480538316374e-01 0.0000000000000000e+00  -5.1929352658496374e-02 -2.0632799004278346e-01 0.0000000000000000e+00  2.5452565654250359e-03 -1.9245384067615809e-01 0.0000000000000000e+00  -5.2223594668707699e-02 -1.7628142551144182e-01 0.0000000000000000e+00  -1.3658786179626635e-03 -1.5939079615493137e-01 0.0000000000000000e+00  -4.0493273528817486e-02 -1.2817286274503026e-01 0.0000000000000000e+00  -3.5447218293602180e-02 -8.8740269231566804e-02 0.0000000000000000e+00  -3.7725717833112044e-02 -1.2029670502306276e-02 0.0000000000000000e+00  -2.8668464256838628e-02 3.7856061889677398e-02 0.0000000000000000e+00  -7.3461445695679972e-02 1.5726481639250414e-01 0.0000000000000000e+00  -9.7238050778240021e-02 2.8887874692897408e-01 0.0000000000000000e+00  -1.2067931971013968e-01 3.2767044968446613e-01 0.0000000000000000e+00  -6.3740227877299854e-03 -1.6048755838669920e-01 0.0000000000000000e+00  -9.1287965667333597e-03 1.2857437578846928e-01 0.0000000000000000e+00  4.3266618589976694e-04 1.7982731928117096e-01 0.0000000000000000e+00  9.2328371090332814e-03 2.3085144881076880e-01 0.0000000000000000e+00  -1.0109625861035735e-02 -8.4110232225022369e-02 0.0000000000000000e+00  2.0547277748506642e-03 2.4034131101035558e-01 0.0000000000000000e+00  4.3201139274796473e-03 2.4552645038229071e-02 0.0000000000000000e+00  1.6724903061678318e-03 2.3123364294409390e-01 0.0000000000000000e+00  4.5171513332224571e-03 1.3398905850420081e-01 0.0000000000000000e+00  6.2727266231416543e-04 1.5703809666599244e-01 0.0000000000000000e+00  -6.6764385628107856e-03 2.2989535665166053e-01 0.0000000000000000e+00  4.6899132880270852e-03 1.6258365894933083e-01 0.0000000000000000e+00  -2.5837999654996870e-03 2.0253523912145441e-01 0.0000000000000000e+00  -3.5636513202308854e-03 1.6188420368212522e-01 0.0000000000000000e+00  5.6024400990894497e-04 1.5647098726200434e-01 0.0000000000000000e+00  -2.9539967433853433e-03 1.8967474275436905e-01 0.0000000000000000e+00  2.6474789728860421e-03 2.2004176665593655e-01 0.0000000000000000e+00  -2.9722603547689343e-03 1.5411183788587376e-01 0.0000000000000000e+00  -8.0174502402344618e-04 1.7513506121300484e-01 0.0000000000000000e+00  -1.0854170335167230e-03 1.5146512763905073e-01 0.0000000000000000e+00  -5.7770199251370499e-03 1.6317367303177294e-01 0.0000000000000000e+00  2.7092228387692596e-03 1.2993588356089547e-01 0.0000000000000000e+00  -1.2924328756948515e-03 1.3842348227170004e-01 0.0000000000000000e+00  -4.3618463533732924e-03 1.8515113010046946e-01 0.0000000000000000e+00  3.5826208905173598e-03 8.4080436454158983e-02 0.0000000000000000e+00  1.0192778197956838e-02 1.3217058627799835e-01 0.0000000000000000e+00  -4.1209746610304167e-02 -1.3140420982903087e-01 0.0000000000000000e+00  -3.5169212243962179e-03 1.6257964581224291e-01 0.0000000000000000e+00  -7.5747120178621388e-03 1.7102261814855657e-01 0.0000000000000000e+00  2.9497792918509430e-02 -4.4855404912459559e-03 0.0000000000000000e+00  1.2133344706958585e-03 1.0538099533368135e-01 0.0000000000000000e+00  -3.7398888519275296e-03 1.4444871295257539e-01 0.0000000000000000e+00  -7.5789512547951132e-05 1.5645538365967193e-01 0.0000000000000000e+00  -8.7873734290708026e-03 1.1255145002363678e-01 0.0000000000000000e+00  4.1243076330168649e-04 1.3304296204414456e-01 0.0000000000000000e+00  3.1656445184757645e-03 1.1131108973057516e-01 0.0000000000000000e+00  -2.5351569803989007e-03 1.1098885294705937e-01 0.0000000000000000e+00  -1.3443888711258123e-03 1.2914923511945728e-01 0.0000000000000000e+00  -2.1569493827951597e-03 1.6438541647203944e-01 0.0000000000000000e+00  3.1757776500717047e-03 1.1976899446915013e-01 0.0000000000000000e+00  1.8011056648741337e-03 1.1375200945481601e-01 0.0000000000000000e+00  -3.3168997779046853e-02 -1.7270459781399033e-01 0.0000000000000000e+00  4.1075003837345789e-02 -1.6302835363548626e-01 0.0000000000000000e+00  -6.9138323556097475e-02 9.3831991269285486e-02 0.0000000000000000e+00  2.5776382023575774e-02 -1.3272268046262073e-01 0.00