<?xml version="1.0"?>
<VTKFile type="UnstructuredGrid"  version="0.1"  >
<UnstructuredGrid>
<Piece  NumberOfPoints="1419" NumberOfCells="2698">
<Points>
<DataArray  type="Float64"  NumberOfComponents="3"  format="ascii">6.104156406078716e-09 -1.157865216647708e-06 0  1.974983899337983e-08 0.4099988371104129 0  2.500000031860549 -1.698224607554819e-06 0  2.50000003186056 0.4099983017754068 0  0.6000000343996582 0.1899982454601854 0  0.6000000442131578 0.2099982471776381 0  0.25 0.2 0  0.1500000125747225 0.1999988501586137 0  0.2489897948556636 0.21 0  0.2489897948556636 0.19 0  0.6000000414129475 0.1999982391987121 0  1.959509360115502e-08 0.3807131231643251 0  1.915431755090303e-08 0.3514274098024184 0  1.841358828652204e-08 0.3221416968877059 0  1.737320907265637e-08 0.2928559841244242 0  1.608585600722282e-08 0.2635702712848895 0  1.460101924661534e-08 0.2342845582166186 0  1.297864109386358e-08 0.2049988446908661 0  1.135094565919408e-08 0.1757131307459841 0  9.835475788272325e-09 0.1464274163389705 0  8.507177006344361e-09 0.117141701555835 0  7.469442374568077e-09 0.08785598653568825 0  6.703482690515219e-09 0.05857027148245546 0  6.248893723493179e-09 0.02928455662111798 0  0.03015444355467399 -1.15809108884777e-06 0  0.06140002531731535 -1.158909604124715e-06 0  0.09377624535022679 -1.160766508575232e-06 0  0.1273239990964769 -1.164440392479739e-06 0  0.1620856878498181 -1.171329923893558e-06 0  0.1981052434832524 -1.184865876266272e-06 0  0.2354281828181007 -1.210176743147971e-06 0  0.274101655577952 -1.250558837821818e-06 0  0.3141745502637183 -1.306466716424526e-06 0  0.3556974923421068 -1.375687289450771e-06 0  0.3987229568403396 -1.45000574218922e-06 0  0.4433053121561037 -1.520906751436642e-06 0  0.4895008873914398 -1.582784468534357e-06 0  0.5373680774091477 -1.630613171384411e-06 0  0.5869673553445756 -1.662748401387218e-06 0  0.6383613923908663 -1.682350096160968e-06 0  0.6916151411781239 -1.692008036562801e-06 0  0.7467958885907463 -1.696233257374724e-06 0  0.8039733765101676 -1.697936476726085e-06 0  0.8632198447464647 -1.698488310194862e-06 0  0.9246101639054707 -1.698572086671259e-06 0  0.9882219125619203 -1.698503615904156e-06 0  1.054135477187974 -1.698420463241822e-06 0  1.122434132264824 -1.698351125637475e-06 0  1.193204208922673 -1.698300820849017e-06 0  1.266535121695731 -1.698268700967395e-06 0  1.342519547882002 -1.698249783694857e-06 0  1.421253480350771 -1.698238573870695e-06 0  1.502836420959605 -1.698231993734432e-06 0  1.587371471615646 -1.698228448693069e-06 0  1.674965450636012 -1.698226571884599e-06 0  1.765729033685154 -1.698225572843404e-06 0  1.859776940740169 -1.698225081655581e-06 0  1.957228009347399 -1.69822482408322e-06 0  2.058205361730394 -1.698224706819839e-06 0  2.16283662305046 -1.698224646973592e-06 0  2.271253989151398 -1.698224621613879e-06 0  2.383594478663969 -1.698224610760753e-06 0  2.500000031860549 0.1024983017751557 0  2.500000031860554 0.2049983017748738 0  2.50000003186056 0.3074983017751229 0  2.383594478664219 0.40999830177541 0  2.271253989151889 0.4099983017754211 0  2.162836623051199 0.4099983017754475 0  2.058205361731432 0.4099983017755047 0  1.957228009348836 0.4099983017756207 0  1.859776940742277 0.4099983017758909 0  1.76572903368836 0.4099983017763805 0  1.674965450641331 0.4099983017774211 0  1.587371471624742 0.4099983017793037 0  1.502836420975738 0.4099983017828901 0  1.421253480380124 0.409998301789824 0  1.342519547933767 0.4099983018016073 0  1.266535121785958 0.409998301822221 0  1.193204209081786 0.4099983018610662 0  1.1224341325402 0.4099983019307916 0  1.054135477643459 0.4099983020475044 0  0.9882219133225816 0.4099983022790328 0  0.9246101651335531 0.4099983027048416 0  0.8632198467120715 0.4099983035214796 0  0.803973379587603 0.4099983051572338 0  0.7467958933140189 0.4099983084425027 0  0.6916151481960187 0.4099983148491647 0  0.6383614024991843 0.4099983273282296 0  0.5869673693664507 0.4099983487813271 0  0.5373680958795426 0.4099983819527629 0  0.4895009105740898 0.4099984291923604 0  0.443305339825216 0.4099984881156422 0  0.3987229881017275 0.40999855475181 0  0.3556975257060703 0.409998623714554 0  0.3141745839652484 0.4099986880998938 0  0.2741016877405258 0.4099987415471348 0  0.2354282121958201 0.4099987799526801 0  0.1981052693680556 0.40999880519587 0  0.1620857101647419 0.4099988200063648 0  0.1273240182595057 0.4099988282666054 0  0.09377626202328471 0.4099988330263883 0  0.06140004026245547 0.4099988355020667 0  0.03015445749417436 0.4099988367888801 0  0.2497468076502589 0.2050254481002335 0  0.2497468076502614 0.1949745518997913 0  0.2469965132264571 0.1829311412795792 0  0.2439893609313354 0.1762308716917073 0  0.2400332032529214 0.1700434535442716 0  0.2352133873526324 0.1645023289137686 0  0.229633893422334 0.1597270159274375 0  0.2234150909000154 0.1558205274710272 0  0.2166911414484496 0.1528671349652867 0  0.2096071045566506 0.150930550290399 0  0.2023158081886957 0.1500525489137232 0  0.1949745514792062 0.1502520719279885 0  0.1877417115241413 0.151524812994579 0  0.1807733263759176 0.1538433140451363 0  0.1742197289535523 0.1571575557985013 0  0.1682223036289325 0.161396037996864 0  0.1629104362670183 0.1664673209688428 0  0.1583987227065404 0.1722619989783861 0  0.154784496719179 0.1786550599567057 0  0.1521457299904243 0.1855085827826425 0  0.150539350177114 0.1926747124805044 0  0.150539352673799 0.207322988102632 0  0.1521457350080342 0.2144891186338693 0  0.1547845042054419 0.2213426429040787 0  0.1583987327020719 0.2277357061184654 0  0.1629104487346816 0.2335303873007571 0  0.168222318620006 0.2386016748499287 0  0.1742197464188729 0.2428401632047511 0  0.1807733463612229 0.2461544134993861 0  0.1877417340286415 0.2484729262898187 0  0.1949745765212882 0.249745683535459 0  0.2023158357423252 0.249945227936544 0  0.2096071346798884 0.2490672564164179 0  0.2166911740637343 0.2471307110471642 0  0.2234151259980995 0.2441773734821309 0  0.2296339308709563 0.2402709596045193 0  0.2352134268419634 0.2354957522095908 0  0.2400332441165058 0.2299547755463409 0  0.2439894013175831 0.2237675914907907 0  0.2469965480263264 0.2170677240805257 0  0.2564581270243133 0.2099994461041124 0  0.2639264364876948 0.2099992581218344 0  0.2713947442719304 0.2099991354971464 0  0.2788630461789183 0.2099990410517921 0  0.286331348936665 0.209998963055394 0  0.2937996521062367 0.2099988945164039 0  0.30126795429626 0.2099988320249257 0  0.3087362554717051 0.2099987869839645 0  0.3162045610275324 0.2099987438855506 0  0.3236728613249519 0.2099987038755281 0  0.3311411670792725 0.2099986677740663 0  0.3386094666200826 0.2099986345565336 0  0.3460777712612177 0.2099986026491159 0  0.3535460713295509 0.20999856783565 0  0.3610143713850374 0.2099985507596367 0  0.3684826750296727 0.2099985304529665 0  0.3759509738029383 0.2099985090872323 0  0.3834192772784075 0.2099984890784161 0  0.3908875759252363 0.2099984696634884 0  0.3983558794353436 0.2099984514018354 0  0.405824177782107 0.2099984329889984 0  0.413292480837931 0.2099984135420135 0  0.4207607793414517 0.2099983898046042 0  0.4282290791315842 0.2099983805358748 0  0.4356973821994394 0.2099983676060742 0  0.4431656817270704 0.2099983532701479 0  0.4506339852380208 0.2099983387636741 0  0.4581022847423649 0.2099983247867954 0  0.4655705888240159 0.2099983112587153 0  0.4730388882426876 0.2099982982420026 0  0.4805071929245592 0.2099982855496303 0  0.4879754928285741 0.2099982734811818 0  0.4954437984138991 0.2099982614211569 0  0.50291209833627 0.2099982513149432 0  0.5103804042939042 0.2099982426610241 0  0.5178487048619911 0.2099982349837776 0  0.5253170125154967 0.2099982272057317 0  0.5327853132863873 0.2099982199070853 0  0.5402536210251622 0.20999821424851 0  0.5477219224042168 0.2099982106995143 0  0.5551902308586458 0.2099982052412681 0  0.5626585334479741 0.2099981952851142 0  0.5701268347181219 0.2099982101920491 0  0.5775951421403399 0.2099982198967147 0  0.5850634426970667 0.20999822598783 0  0.5925317462907417 0.2099982361917307 0  0.6000000453093222 0.20499824176961 0  0.6000000359846013 0.1949982425453103 0  0.5925317313493225 0.1899982334546367 0  0.5850634317704468 0.1899982209028319 0  0.5775951258172046 0.1899982106833247 0  0.5701268255981071 0.1899982008344187 0  0.5626585203242324 0.1899981867080059 0  0.555190213719528 0.1899981943650422 0  0.5477219133867738 0.1899981967385227 0  0.5402536053565595 0.1899981993295668 0  0.5327853052726514 0.1899982035829307 0  0.5253169965638411 0.1899982094307186 0  0.517848695223816 0.1899982166061311 0  0.5103803870163981 0.189998224833346 0  0.5029120866410945 0.1899982340262144 0  0.4954437788550204 0.1899982445484184 0  0.4879754783946708 0.1899982562274049 0  0.4805071708609313 0.1899982688793963 0  0.4730388695399963 0.1899982821466604 0  0.4655705624245494 0.1899982961671928 0  0.458102261871732 0.18999831070985 0  0.4506339555971136 0.1899983258244221 0  0.4431656549399782 0.1899983414098409 0  0.4356973485488797 0.1899983573140389 0  0.4282290469617027 0.1899983725273561 0  0.4207607413957891 0.1899983838693584 0  0.4132924367372918 0.1899984087035438 0  0.4058241358685021 0.1899984304461323 0  0.398355830875436 0.1899984501905889 0  0.3908875295084314 0.1899984703237753 0  0.3834192242932002 0.1899984907631797 0  0.3759509226490069 0.1899985117416789 0  0.3684826175423491 0.1899985335037843 0  0.3610143165290761 0.1899985539188049 0  0.3535460113768145 0.1899985720747612 0  0.3460777053179574 0.1899986071472552 0  0.3386094037935711 0.1899986404247224 0  0.3311410977401483 0.1899986740102453 0  0.3236727970396493 0.1899987102158883 0  0.3162044918775735 0.1899987499498748 0  0.308736191411194 0.1899987922377086 0  0.3012678865487737 0.1899988368274789 0  0.2937995834554293 0.1899988985065834 0  0.2863312815493833 0.1899989665747694 0  0.2788629794027069 0.1899990442194991 0  0.2713946749657307 0.1899991388144391 0  0.26392637520135 0.1899992628924915 0  0.256458076172367 0.1899994496129761 0  0.2
[...]
<PointData  Vectors="f_30-0"> 
<DataArray  type="Float64"  Name="f_30-0"  NumberOfComponents="3" format="ascii">0.0000000000000000e+00 0.0000000000000000e+00 0.0000000000000000e+00  0.0000000000000000e+00 0.0000000000000000e+00 0.0000000000000000e+00  0.0000000000000000e+00 0.0000000000000000e+00 0.0000000000000000e+00  0.0000000000000000e+00 0.0000000000000000e+00 0.0000000000000000e+00  1.0062159403108721e-02 -5.5609459357663663e-02 0.0000000000000000e+00  2.4267446070474007e-02 -4.9845270476176332e-02 0.0000000000000000e+00  0.0000000000000000e+00 0.0000000000000000e+00 0.0000000000000000e+00  0.0000000000000000e+00 0.0000000000000000e+00 0.0000000000000000e+00  0.0000000000000000e+00 0.0000000000000000e+00 0.0000000000000000e+00  0.0000000000000000e+00 0.0000000000000000e+00 0.0000000000000000e+00  5.0915254067702427e-02 -1.3096542514333981e-01 0.0000000000000000e+00  0.0000000000000000e+00 0.0000000000000000e+00 0.0000000000000000e+00  0.0000000000000000e+00 0.0000000000000000e+00 0.0000000000000000e+00  0.0000000000000000e+00 0.0000000000000000e+00 0.0000000000000000e+00  0.0000000000000000e+00 0.0000000000000000e+00 0.0000000000000000e+00  0.0000000000000000e+00 0.0000000000000000e+00 0.0000000000000000e+00  0.0000000000000000e+00 0.0000000000000000e+00 0.0000000000000000e+00  0.0000000000000000e+00 0.0000000000000000e+00 0.0000000000000000e+00  0.0000000000000000e+00 0.0000000000000000e+00 0.0000000000000000e+00  0.0000000000000000e+00 0.0000000000000000e+00 0.0000000000000000e+00  0.0000000000000000e+00 0.0000000000000000e+00 0.0000000000000000e+00  0.0000000000000000e+00 0.0000000000000000e+00 0.0000000000000000e+00  0.0000000000000000e+00 0.0000000000000000e+00 0.0000000000000000e+00  0.0000000000000000e+00 0.0000000000000000e+00 0.0000000000000000e+00  0.0000000000000000e+00 0.0000000000000000e+00 0.0000000000000000e+00  0.0000000000000000e+00 0.0000000000000000e+00 0.0000000000000000e+00  0.0000000000000000e+00 0.0000000000000000e+00 0.0000000000000000e+00  0.0000000000000000e+00 0.0000000000000000e+00 0.0000000000000000e+00  0.0000000000000000e+00 0.0000000000000000e+00 0.0000000000000000e+00  0.0000000000000000e+00 0.0000000000000000e+00 0.0000000000000000e+00  0.0000000000000000e+00 0.0000000000000000e+00 0.0000000000000000e+00  0.0000000000000000e+00 0.0000000000000000e+00 0.0000000000000000e+00  0.0000000000000000e+00 0.0000000000000000e+00 0.0000000000000000e+00  0.0000000000000000e+00 0.0000000000000000e+00 0.0000000000000000e+00  0.0000000000000000e+00 0.0000000000000000e+00 0.0000000000000000e+00  0.0000000000000000e+00 0.0000000000000000e+00 0.0000000000000000e+00  0.0000000000000000e+00 0.0000000000000000e+00 0.0000000000000000e+00  0.0000000000000000e+00 0.0000000000000000e+00 0.0000000000000000e+00  0.0000000000000000e+00 0.0000000000000000e+00 0.0000000000000000e+00  0.0000000000000000e+00 0.0000000000000000e+00 0.0000000000000000e+00  0.0000000000000000e+00 0.0000000000000000e+00 0.0000000000000000e+00  0.0000000000000000e+00 0.0000000000000000e+00 0.0000000000000000e+00  0.0000000000000000e+00 0.0000000000000000e+00 0.0000000000000000e+00  0.0000000000000000e+00 0.0000000000000000e+00 0.0000000000000000e+00  0.0000000000000000e+00 0.0000000000000000e+00 0.0000000000000000e+00  0.0000000000000000e+00 0.0000000000000000e+00 0.0000000000000000e+00  0.0000000000000000e+00 0.0000000000000000e+00 0.0000000000000000e+00  0.0000000000000000e+00 0.0000000000000000e+00 0.0000000000000000e+00  0.0000000000000000e+00 0.0000000000000000e+00 0.0000000000000000e+00  0.0000000000000000e+00 0.0000000000000000e+00 0.0000000000000000e+00  0.0000000000000000e+00 0.0000000000000000e+00 0.0000000000000000e+00  0.0000000000000000e+00 0.0000000000000000e+00 0.0000000000000000e+00  0.0000000000000000e+00 0.0000000000000000e+00 0.0000000000000000e+00  0.0000000000000000e+00 0.0000000000000000e+00 0.0000000000000000e+00  0.0000000000000000e+00 0.0000000000000000e+00 0.0000000000000000e+00  0.0000000000000000e+00 0.0000000000000000e+00 0.0000000000000000e+00  0.0000000000000000e+00 0.0000000000000000e+00 0.0000000000000000e+00  0.0000000000000000e+00 0.0000000000000000e+00 0.0000000000000000e+00  0.0000000000000000e+00 0.0000000000000000e+00 0.0000000000000000e+00  0.0000000000000000e+00 0.0000000000000000e+00 0.0000000000000000e+00  0.0000000000000000e+00 0.0000000000000000e+00 0.0000000000000000e+00  0.0000000000000000e+00 0.0000000000000000e+00 0.0000000000000000e+00  5.7138389965176795e-09 1.8619161373702932e-09 0.0000000000000000e+00  -2.1235136117886201e-10 2.4484659707693462e-09 0.0000000000000000e+00  -6.0127862490568159e-09 2.2579510171513203e-09 0.0000000000000000e+00  0.0000000000000000e+00 0.0000000000000000e+00 0.0000000000000000e+00  0.0000000000000000e+00 0.0000000000000000e+00 0.0000000000000000e+00  0.0000000000000000e+00 0.0000000000000000e+00 0.0000000000000000e+00  0.0000000000000000e+00 0.0000000000000000e+00 0.0000000000000000e+00  0.0000000000000000e+00 0.0000000000000000e+00 0.0000000000000000e+00  0.0000000000000000e+00 0.0000000000000000e+00 0.0000000000000000e+00  0.0000000000000000e+00 0.0000000000000000e+00 0.0000000000000000e+00  0.0000000000000000e+00 0.0000000000000000e+00 0.0000000000000000e+00  0.0000000000000000e+00 0.0000000000000000e+00 0.0000000000000000e+00  0.0000000000000000e+00 0.0000000000000000e+00 0.0000000000000000e+00  0.0000000000000000e+00 0.0000000000000000e+00 0.0000000000000000e+00  0.0000000000000000e+00 0.0000000000000000e+00 0.0000000000000000e+00  0.0000000000000000e+00 0.0000000000000000e+00 0.0000000000000000e+00  0.0000000000000000e+00 0.0000000000000000e+00 0.0000000000000000e+00  0.0000000000000000e+00 0.0000000000000000e+00 0.0000000000000000e+00  0.0000000000000000e+00 0.0000000000000000e+00 0.0000000000000000e+00  0.0000000000000000e+00 0.0000000000000000e+00 0.0000000000000000e+00  0.0000000000000000e+00 0.0000000000000000e+00 0.0000000000000000e+00  0.0000000000000000e+00 0.0000000000000000e+00 0.0000000000000000e+00  0.0000000000000000e+00 0.0000000000000000e+00 0.0000000000000000e+00  0.0000000000000000e+00 0.0000000000000000e+00 0.0000000000000000e+00  0.0000000000000000e+00 0.0000000000000000e+00 0.0000000000000000e+00  0.0000000000000000e+00 0.0000000000000000e+00 0.0000000000000000e+00  0.0000000000000000e+00 0.0000000000000000e+00 0.0000000000000000e+00  0.0000000000000000e+00 0.0000000000000000e+00 0.0000000000000000e+00  0.0000000000000000e+00 0.0000000000000000e+00 0.0000000000000000e+00  0.0000000000000000e+00 0.0000000000000000e+00 0.0000000000000000e+00  0.0000000000000000e+00 0.0000000000000000e+00 0.0000000000000000e+00  0.0000000000000000e+00 0.0000000000000000e+00 0.0000000000000000e+00  0.0000000000000000e+00 0.0000000000000000e+00 0.0000000000000000e+00  0.0000000000000000e+00 0.0000000000000000e+00 0.0000000000000000e+00  0.0000000000000000e+00 0.0000000000000000e+00 0.0000000000000000e+00  0.0000000000000000e+00 0.0000000000000000e+00 0.0000000000000000e+00  0.0000000000000000e+00 0.0000000000000000e+00 0.0000000000000000e+00  0.0000000000000000e+00 0.0000000000000000e+00 0.0000000000000000e+00  0.0000000000000000e+00 0.0000000000000000e+00 0.0000000000000000e+00  0.0000000000000000e+00 0.0000000000000000e+00 0.0000000000000000e+00  0.0000000000000000e+00 0.0000000000000000e+00 0.0000000000000000e+00  0.0000000000000000e+00 0.0000000000000000e+00 0.0000000000000000e+00  0.0000000000000000e+00 0.0000000000000000e+00 0.0000000000000000e+00  0.0000000000000000e+00 0.0000000000000000e+00 0.0000000000000000e+00  0.0000000000000000e+00 0.0000000000000000e+00 0.0000000000000000e+00  0.0000000000000000e+00 0.0000000000000000e+00 0.0000000000000000e+00  0.0000000000000000e+00 0.0000000000000000e+00 0.0000000000000000e+00  0.0000000000000000e+00 0.0000000000000000e+00 0.0000000000000000e+00  0.0000000000000000e+00 0.0000000000000000e+00 0.0000000000000000e+00  0.0000000000000000e+00 0.0000000000000000e+00 0.0000000000000000e+00  0.0000000000000000e+00 0.0000000000000000e+00 0.0000000000000000e+00  0.0000000000000000e+00 0.0000000000000000e+00 0.0000000000000000e+00  0.0000000000000000e+00 0.0000000000000000e+00 0.0000000000000000e+00  0.0000000000000000e+00 0.0000000000000000e+00 0.0000000000000000e+00  0.0000000000000000e+00 0.0000000000000000e+00 0.0000000000000000e+00  0.0000000000000000e+00 0.0000000000000000e+00 0.0000000000000000e+00  0.0000000000000000e+00 0.0000000000000000e+00 0.0000000000000000e+00  0.0000000000000000e+00 0.0000000000000000e+00 0.0000000000000000e+00  0.0000000000000000e+00 0.0000000000000000e+00 0.0000000000000000e+00  0.0000000000000000e+00 0.0000000000000000e+00 0.0000000000000000e+00  0.0000000000000000e+00 0.0000000000000000e+00 0.0000000000000000e+00  0.0000000000000000e+00 0.0000000000000000e+00 0.0000000000000000e+00  0.0000000000000000e+00 0.0000000000000000e+00 0.0000000000000000e+00  0.0000000000000000e+00 0.0000000000000000e+00 0.0000000000000000e+00  0.0000000000000000e+00 0.0000000000000000e+00 0.0000000000000000e+00  0.0000000000000000e+00 0.0000000000000000e+00 0.0000000000000000e+00  0.0000000000000000e+00 0.0000000000000000e+00 0.0000000000000000e+00  0.0000000000000000e+00 0.0000000000000000e+00 0.0000000000000000e+00  0.0000000000000000e+00 0.0000000000000000e+00 0.0000000000000000e+00  0.0000000000000000e+00 0.0000000000000000e+00 0.0000000000000000e+00  0.0000000000000000e+00 0.0000000000000000e+00 0.0000000000000000e+00  0.0000000000000000e+00 0.0000000000000000e+00 0.0000000000000000e+00  0.0000000000000000e+00 0.0000000000000000e+00 0.0000000000000000e+00  0.0000000000000000e+00 0.0000000000000000e+00 0.0000000000000000e+00  0.0000000000000000e+00 0.0000000000000000e+00 0.0000000000000000e+00  0.0000000000000000e+00 0.0000000000000000e+00 0.0000000000000000e+00  0.0000000000000000e+00 0.0000000000000000e+00 0.0000000000000000e+00  0.0000000000000000e+00 0.0000000000000000e+00 0.0000000000000000e+00  0.0000000000000000e+00 0.0000000000000000e+00 0.0000000000000000e+00  0.0000000000000000e+00 0.0000000000000000e+00 0.0000000000000000e+00  0.0000000000000000e+00 0.0000000000000000e+00 0.0000000000000000e+00  8.9685204735009461e-02 2.7787071026308990e-01 0.0000000000000000e+00  7.1369850116950004e-02 2.1937863218282114e-01 0.0000000000000000e+00  7.1784331744226493e-02 1.3122540206172065e-01 0.0000000000000000e+00  3.5100605374543091e-02 3.0137463878091207e-02 0.0000000000000000e+00  2.8887085875829999e-02 -1.6271502711745881e-02 0.0000000000000000e+00  2.3765786413099392e-02 -9.1792837730581334e-02 0.0000000000000000e+00  3.0081814745882555e-02 -1.2921574202539327e-01 0.0000000000000000e+00  -7.2233516571156278e-03 -1.5529823949804863e-01 0.0000000000000000e+00  3.6008012526758490e-02 -1.5946458765570509e-01 0.0000000000000000e+00  -7.4215012063919266e-03 -1.7343049480458897e-01 0.0000000000000000e+00  3.6887496661124196e-02 -1.8526542670922538e-01 0.0000000000000000e+00  -6.3065966845218084e-03 -1.8649902177820765e-01 0.0000000000000000e+00  4.3574140181406970e-02 -2.0219378907922073e-01 0.0000000000000000e+00  5.7317660440236408e-03 -1.9875577709672390e-01 0.0000000000000000e+00  6.6298336305671329e-04 -1.8609390531002340e-01 0.0000000000000000e+00  1.8870307254992894e-02 -1.6375043643665466e-01 0.0000000000000000e+00  -3.2551229828112643e-03 -1.7399184822350425e-01 0.0000000000000000e+00  1.8442442461264395e-02 -1.6179346352103305e-01 0.0000000000000000e+00  -8.8172103751701352e-03 -1.6447437962033584e-01 0.0000000000000000e+00  2.1422498574426775e-02 -1.6487483655039950e-01 0.0000000000000000e+00  -1.7104743832006854e-02 -1.6502903410410263e-01 0.0000000000000000e+00  2.9063059258991129e-02 -1.7154167656180930e-01 0.0000000000000000e+00  -1.1600775560834135e-02 -1.7285593945911454e-01 0.0000000000000000e+00  -1.9869427047064632e-02 -1.7589317278822370e-01 0.0000000000000000e+00  1.6905842661993126e-03 -1.8535230490256210e-01 0.0000000000000000e+00  -1.6389760043363448e-02 -1.8804883938841327e-01 0.0000000000000000e+00  -2.5753501330589320e-04 -2.0018415629297986e-01 0.0000000000000000e+00  -2.8216051509075295e-02 -2.1152165129874761e-01 0.0000000000000000e+00  1.2254557378323943e-02 -2.1554308928266100e-01 0.0000000000000000e+00  -3.9056281964850226e-02 -2.2065929048422722e-01 0.0000000000000000e+00  1.5155347422938593e-02 -2.3435542909213067e-01 0.0000000000000000e+00  -3.6474058302623659e-02 -2.3231197627216407e-01 0.0000000000000000e+00  9.9890845831627894e-03 -2.7267994300029996e-01 0.0000000000000000e+00  -3.2542755909259882e-02 -2.7448627729429553e-01 0.0000000000000000e+00  1.5534170443654391e-02 -2.5864185202486112e-01 0.0000000000000000e+00  -3.7389460975547822e-02 -2.4758053462424140e-01 0.0000000000000000e+00  2.2774164431312957e-02 -2.5856325762770704e-01 0.0000000000000000e+00  -4.0106412846860041e-02 -2.8420593494376228e-01 0.0000000000000000e+00  3.4447304805283463e-02 -2.9367435970630457e-01 0.0000000000000000e+00  -2.5554116964707010e-02 -2.6755582534766265e-01 0.0000000000000000e+00  3.9534022039715115e-02 -2.6901823716557571e-01 0.0000000000000000e+00  1.3794917429785026e-02 -2.5861731090550166e-01 0.0000000000000000e+00  -1.3805739309188417e-02 -2.3269067254906117e-01 0.0000000000000000e+00  4.9319345580966768e-02 -1.8595003369436514e-01 0.0000000000000000e+00  1.2891037104576387e-02 -2.2046126414309944e-01 0.0000000000000000e+00  8.9540365051849383e-02 -1.8175205814622108e-01 0.0000000000000000e+00  8.8489976658028408e-02 -1.3480509285199813e-01 0.0000000000000000e+00  -1.7417574033834600e-02 -1.0524753523627610e-01 0.0000000000000000e+00  -2.6838529080706723e-04 -1.3019190105339973e-01 0.0000000000000000e+00  5.1914051039029713e-02 -1.7988907223936570e-01 0.0000000000000000e+00  1.4568388229370746e-03 -1.9789290336767604e-01 0.0000000000000000e+00  4.9111402756464730e-02 -2.3833788854128871e-01 0.0000000000000000e+00  1.9790650396776865e-02 -2.3281173360974083e-01 0.0000000000000000e+00  -2.3749814746820110e-02 -2.5651026676186028e-01 0.0000000000000000e+00  4.6267161557697320e-02 -2.4601206641062423e-01 0.0000000000000000e+00  -2.7567263225995831e-02 -2.5281317943424414e-01 0.0000000000000000e+00  4.0051697383285817e-02 -2.5623630785896040e-01 0.0000000000000000e+00  -3.0631298861007392e-02 -2.5534270748531290e-01 0.0000000000000000e+00  3.2356148842861893e-02 -2.4758293610244944e-01 0.0000000000000000e+00  -3.1701974312635571e-02 -2.4196637649557093e-01 0.0000000000000000e+00  3.0439349663131315e-02 -2.3271639256647828e-01 0.0000000000000000e+00  -3.4925030113277182e-02 -2.2791340958208650e-01 0.0000000000000000e+00  2.3799748506860688e-02 -2.2203578034275903e-01 0.0000000000000000e+00  -3.3419203218004623e-02 -2.1676577670310337e-01 0.0000000000000000e+00  2.0165770410309026e-02 -2.0773480351901943e-01 0.0000000000000000e+00  -3.2840297411441136e-02 -1.9919218063237482e-01 0.0000000000000000e+00  1.8263966833784288e-02 -1.8720598636239050e-01 0.0000000000000000e+00  -3.0787499477730455e-02 -1.8204712898830583e-01 0.0000000000000000e+00  1.7487443296360174e-02 -1.7878297724666833e-01 0.0000000000000000e+00  -2.7510931098745875e-02 -1.7314236503227329e-01 0.0000000000000000e+00  1.8065852764412086e-02 -1.7722489831009713e-01 0.0000000000000000e+00  -1.0244136636215376e-02 -1.7041364850226159e-01 0.0000000000000000e+00  -2.4367990455683514e-02 -1.7216868068097860e-01 0.0000000000000000e+00  4.7566762677666184e-03 -1.6011942537540272e-01 0.0000000000000000e+00  -2.1033913802611239e-02 -1.6912407408394275e-01 0.0000000000000000e+00  7.8106380995065765e-03 -1.7428492280477098e-01 0.0000000000000000e+00  -1.9752814571140247e-02 -1.7709849880472486e-01 0.0000000000000000e+00  7.6935874894266303e-03 -1.7899759510381763e-01 0.0000000000000000e+00  -1.8035735134847169e-02 -1.7483221610613478e-01 0.0000000000000000e+00  1.0661313376785624e-02 -1.8610387156910255e-01 0.0000000000000000e+00  -7.0381039260799800e-04 -1.9078732767906317e-01 0.0000000000000000e+00  -4.2452019079588246e-02 -2.0174866497747632e-01 0.0000000000000000e+00  8.6396262457782563e-03 -1.8770379833210224e-01 0.0000000000000000e+00  -4.5423818851683846e-02 -1.8783419570541166e-01 0.0000000000000000e+00  4.4727268285838567e-03 -1.7764363970761426e-01 0.0000000000000000e+00  -4.6327406228192237e-02 -1.6463525287084985e-01 0.0000000000000000e+00  1.1115746758870993e-03 -1.5255714335713078e-01 0.0000000000000000e+00  -3.5836655998233789e-02 -1.2640407985927019e-01 0.0000000000000000e+00  -3.4030806065181905e-02 -9.3659522466208664e-02 0.0000000000000000e+00  -3.3797072629818167e-02 -2.4655090094874842e-02 0.0000000000000000e+00  -2.9932312354198600e-02 1.9626750522055317e-02 0.0000000000000000e+00  -6.4813395275970742e-02 1.2463725541157072e-01 0.0000000000000000e+00  -8.4585923671808463e-02 2.3813544112209487e-01 0.0000000000000000e+00  -1.0614946813482690e-01 2.8503158872989653e-01 0.0000000000000000e+00  -5.1674903165145067e-03 -1.3398609241612028e-01 0.0000000000000000e+00  -7.8344597368706238e-03 1.1750753989211872e-01 0.0000000000000000e+00  -3.0888490904274867e-04 1.6539761143851656e-01 0.0000000000000000e+00  8.3676704328872944e-03 2.0795023842750351e-01 0.0000000000000000e+00  -6.8478273637446359e-03 -6.2221525244260750e-02 0.0000000000000000e+00  1.2456973552745379e-03 2.1336429035455454e-01 0.0000000000000000e+00  3.5168940181004803e-03 3.3553918520436918e-02 0.0000000000000000e+00  9.9916977684245175e-04 2.0387593835192039e-01 0.0000000000000000e+00  4.2561375063714579e-03 1.2655668973392731e-01 0.0000000000000000e+00  7.1322314807892133e-04 1.4386441511814224e-01 0.0000000000000000e+00  -4.7776029193811942e-03 1.9916640028969415e-01 0.0000000000000000e+00  4.2473119005798773e-03 1.4358412888883698e-01 0.0000000000000000e+00  -1.7611069730417539e-03 1.7316830441003783e-01 0.0000000000000000e+00  -3.3815605970849488e-03 1.4553947101427661e-01 0.0000000000000000e+00  4.1065470928935781e-04 1.3751680294687163e-01 0.0000000000000000e+00  -2.1534227999658612e-03 1.6162606169505106e-01 0.0000000000000000e+00  1.6301180567555428e-03 1.8863034204716053e-01 0.0000000000000000e+00  -2.5116612777521070e-03 1.3459665069800322e-01 0.0000000000000000e+00  -4.5426120552555108e-04 1.4937958078242641e-01 0.0000000000000000e+00  -1.0082528864894707e-03 1.3129872767088330e-01 0.0000000000000000e+00  -4.7993911926873340e-03 1.3989216358966119e-01 0.0000000000000000e+00  2.1943741590886925e-03 1.1177979979607011e-01 0.0000000000000000e+00  -1.1224302301361708e-03 1.2253455098376317e-01 0.0000000000000000e+00  -3.4921510243613577e-03 1.6881935175525006e-01 0.0000000000000000e+00  2.8744893647010342e-03 8.2882923297019018e-02 0.0000000000000000e+00  1.0503298799783831e-02 1.2202335535796922e-01 0.0000000000000000e+00  -3.6769188390274640e-02 -1.0640748561261532e-01 0.0000000000000000e+00  -3.5996237496251872e-03 1.4382275046456844e-01 0.0000000000000000e+00  -6.8605960236867557e-03 1.5245849169924605e-01 0.0000000000000000e+00  2.7125673862362365e-02 6.6060242382469329e-03 0.0000000000000000e+00  -7.7077577311077615e-04 9.7572475050990926e-02 0.0000000000000000e+00  -3.7304385584333000e-03 1.2365854875807412e-01 0.0000000000000000e+00  -5.9844312518909134e-04 1.3700851948660103e-01 0.0000000000000000e+00  -7.8129207600274829e-03 9.8952514435376018e-02 0.0000000000000000e+00  -8.6167415396327596e-05 1.1356364263688550e-01 0.0000000000000000e+00  1.5389015627593745e-03 1.0079040159322293e-01 0.0000000000000000e+00  -2.3697470145447471e-03 9.7212478892150664e-02 0.0000000000000000e+00  -1.4150072366767698e-03 1.0992613340371836e-01 0.0000000000000000e+00  -2.4166227299540375e-03 1.4065051030221656e-01 0.0000000000000000e+00  2.3559005879832486e-03 1.0398133256446622e-01 0.0000000000000000e+00  1.4492990398733961e-03 9.7316273459609623e-02 0.0000000000000000e+00  -2.9015366673228470e-02 -1.4889110796708838e-01 0.0000000000000000e+00  3.2821387734779786e-02 -1.4163603130585667e-01 0.0000000000000000e+00  -6.0736086232437841e-02 8.4752285061931124e-02 0.0000000000000000e+00  2.5616733309098465e-02 -1.0768153081926972e-01 0.0