<?xml version="1.0"?>
<VTKFile type="UnstructuredGrid"  version="0.1"  >
<UnstructuredGrid>
<Piece  NumberOfPoints="1419" NumberOfCells="2698">
<Points>
<DataArray  type="Float64"  NumberOfComponents="3"  format="ascii">-nan -nan 0  -nan -nan 0  -nan -nan 0  -nan -nan 0  -nan -nan 0  -nan -nan 0  0.25 0.2 0  -nan -nan 0  0.2489897948556636 0.21 0  0.2489897948556636 0.19 0  -nan -nan 0  -nan -nan 0  -nan -nan 0  -nan -nan 0  -nan -nan 0  -nan -nan 0  -nan -nan 0  -nan -nan 0  -nan -nan 0  -nan -nan 0  -nan -nan 0  -nan -nan 0  -nan -nan 0  -nan -nan 0  -nan -nan 0  -nan -nan 0  -nan -nan 0  -nan -nan 0  -nan -nan 0  -nan -nan 0  -nan -nan 0  -nan -nan 0  -nan -nan 0  -nan -nan 0  -nan -nan 0  -nan -nan 0  -nan -nan 0  -nan -nan 0  -nan -nan 0  -nan -nan 0  -nan -nan 0  -nan -nan 0  -nan -nan 0  -nan -nan 0  -nan -nan 0  -nan -nan 0  -nan -nan 0  -nan -nan 0  -nan -nan 0  -nan -nan 0  -nan -nan 0  -nan -nan 0  -nan -nan 0  -nan -nan 0  -nan -nan 0  -nan -nan 0  -nan -nan 0  -nan -nan 0  -nan -nan 0  -nan -nan 0  -nan -nan 0  -nan -nan 0  -nan -nan 0  -nan -nan 0  -nan -nan 0  -nan -nan 0  -nan -nan 0  -nan -nan 0  -nan -nan 0  -nan -nan 0  -nan -nan 0  -nan -nan 0  -nan -nan 0  -nan -nan 0  -nan -nan 0  -nan -nan 0  -nan -nan 0  -nan -nan 0  -nan -nan 0  -nan -nan 0  -nan -nan 0  -nan -nan 0  -nan -nan 0  -nan -nan 0  -nan -nan 0  -nan -nan 0  -nan -nan 0  -nan -nan 0  -nan -nan 0  -nan -nan 0  -nan -nan 0  nan -nan 0  -nan -nan 0  -nan -nan 0  -nan -nan 0  -nan -nan 0  -nan -nan 0  nan -nan 0  -nan -nan 0  -nan -nan 0  -nan -nan 0  -nan -nan 0  -nan -nan 0  0.2497468076502589 0.2050254481002335 0  0.2497468076502614 0.1949745518997913 0  -nan nan 0  -nan -nan 0  -nan -nan 0  -nan -nan 0  nan nan 0  nan nan 0  -nan -nan 0  -nan -nan 0  -nan -nan 0  -nan -nan 0  -nan -nan 0  -nan -nan 0  -nan -nan 0  -nan -nan 0  -nan -nan 0  -nan -nan 0  -nan -nan 0  -nan -nan 0  -nan -nan 0  -nan -nan 0  -nan -nan 0  -nan -nan 0  -nan -nan 0  -nan -nan 0  -nan -nan 0  -nan -nan 0  -nan -nan 0  -nan -nan 0  -nan -nan 0  -nan -nan 0  -nan -nan 0  -nan nan 0  -nan nan 0  -nan nan 0  -nan -nan 0  -nan -nan 0  -nan -nan 0  nan nan 0  -nan nan 0  nan nan 0  nan nan 0  nan nan 0  nan nan 0  -nan -nan 0  -nan -nan 0  -nan -nan 0  nan nan 0  nan nan 0  nan nan 0  -nan -nan 0  nan -nan 0  nan nan 0  nan nan 0  nan nan 0  nan nan 0  nan nan 0  nan -nan 0  nan -nan 0  nan nan 0  nan -nan 0  nan nan 0  nan nan 0  -nan nan 0  nan nan 0  nan -nan 0  nan -nan 0  -nan -nan 0  nan -nan 0  nan -nan 0  nan -nan 0  nan -nan 0  -nan -nan 0  -nan -nan 0  -nan -nan 0  -nan -nan 0  -nan -nan 0  -nan -nan 0  -nan -nan 0  -nan -nan 0  -nan -nan 0  -nan -nan 0  -nan -nan 0  -nan -nan 0  -nan -nan 0  -nan -nan 0  -nan -nan 0  -nan -nan 0  -nan -nan 0  -nan -nan 0  -nan -nan 0  -nan -nan 0  -nan -nan 0  -nan -nan 0  -nan -nan 0  -nan -nan 0  -nan -nan 0  -nan -nan 0  -nan -nan 0  -nan -nan 0  -nan -nan 0  -nan -nan 0  -nan -nan 0  -nan -nan 0  -nan -nan 0  -nan -nan 0  -nan -nan 0  nan nan 0  nan nan 0  nan nan 0  nan nan 0  nan nan 0  -nan -nan 0  -nan -nan 0  -nan -nan 0  nan nan 0  -nan -nan 0  -nan -nan 0  -nan -nan 0  nan nan 0  nan nan 0  -nan nan 0  nan nan 0  nan nan 0  nan nan 0  -nan -nan 0  nan nan 0  nan nan 0  -nan -nan 0  -nan -nan 0  nan nan 0  -nan -nan 0  -nan nan 0  -nan nan 0  -nan -nan 0  -nan -nan 0  -nan -nan 0  -nan -nan 0  -nan -nan 0  nan nan 0  nan nan 0  nan nan 0  nan nan 0  -nan -nan 0  nan nan 0  -nan -nan 0  nan nan 0  nan nan 0  -nan -nan 0  -nan -nan 0  nan nan 0  -nan -nan 0  nan nan 0  nan nan 0  nan -nan 0  nan nan 0  -nan -nan 0  nan nan 0  -nan -nan 0  -nan -nan 0  -nan -nan 0  -nan -nan 0  -nan -nan 0  nan nan 0  -nan -nan 0  nan -nan 0  nan nan 0  -nan -nan 0  nan nan 0  nan nan 0  nan nan 0  -nan -nan 0  nan nan 0  nan nan 0  nan nan 0  nan -nan 0  -nan -nan 0  -nan nan 0  nan nan 0  nan nan 0  -nan -nan 0  nan nan 0  -nan -nan 0  -nan -nan 0  -nan -nan 0  nan nan 0  nan nan 0  -nan -nan 0  -nan -nan 0  nan nan 0  nan nan 0  -nan -nan 0  -nan -nan 0  -nan -nan 0  nan nan 0  -nan nan 0  nan nan 0  nan nan 0  -nan -nan 0  nan nan 0  -nan nan 0  -nan -nan 0  -nan -nan 0  nan nan 0  nan nan 0  nan nan 0  -nan -nan 0  nan nan 0  nan nan 0  nan nan 0  -nan -nan 0  nan nan 0  -nan -nan 0  -nan -nan 0  -nan -nan 0  -nan -nan 0  nan nan 0  -nan nan 0  -nan -nan 0  nan nan 0  -nan -nan 0  nan nan 0  nan nan 0  -nan -nan 0  -nan -nan 0  -nan -nan 0  nan nan 0  -nan -nan 0  -nan -nan 0  nan nan 0  -nan -nan 0  -nan -nan 0  nan nan 0  -nan -nan 0  nan -nan 0  -nan -nan 0  nan nan 0  nan nan 0  -nan -nan 0  -nan -nan 0  nan nan 0  -nan -nan 0  -nan -nan 0  nan nan 0  nan -nan 0  nan nan 0  -nan -nan 0  nan nan 0  nan nan 0  nan nan 0  -nan -nan 0  nan nan 0  nan nan 0  nan nan 0  nan -nan 0  nan nan 0  nan -nan 0  -nan nan 0  -nan -nan 0  -nan -nan 0  nan nan 0  nan -nan 0  -nan -nan 0  -nan -nan 0  -nan -nan 0  -nan -nan 0  -nan -nan 0  -nan -nan 0  -nan nan 0  -nan -nan 0  -nan -nan 0  -nan -nan 0  nan nan 0  nan -nan 0  -nan -nan 0  nan nan 0  -nan -nan 0  nan nan 0  -nan -nan 0  nan nan 0  nan nan 0  nan nan 0  -nan -nan 0  -nan -nan 0  -nan -nan 0  -nan -nan 0  -nan -nan 0  -nan -nan 0  -nan -nan 0  -nan -nan 0  -nan -nan 0  -nan -nan 0  -nan -nan 0  -nan -nan 0  -nan -nan 0  -nan -nan 0  -nan -nan 0  -nan -nan 0  -nan -nan 0  -nan -nan 0  -nan -nan 0  -nan -nan 0  -nan -nan 0  -nan -nan 0  -nan -nan 0  nan -nan 0  nan -nan 0  -nan -nan 0  nan nan 0  nan nan 0  nan nan 0  -nan -nan 0  -nan -nan 0  nan nan 0  nan -nan 0  nan -nan 0  -nan -nan 0  -nan -nan 0  -nan -nan 0  -nan -nan 0  -nan -nan 0  -nan -nan 0  -nan -nan 0  nan -nan 0  -nan -nan 0  -nan -nan 0  -nan -nan 0  -nan -nan 0  -nan -nan 0  -nan -nan 0  -nan -nan 0  -nan -nan 0  -nan -nan 0  -nan -nan 0  -nan -nan 0  -nan -nan 0  -nan -nan 0  -nan -nan 0  -nan -nan 0  nan nan 0  -nan -nan 0  -nan -nan 0  -nan -nan 0  -nan -nan 0  nan nan 0  nan nan 0  -nan -nan 0  nan nan 0  -nan -nan 0  -nan -nan 0  nan nan 0  -nan -nan 0  -nan -nan 0  -nan -nan 0  -nan -nan 0  -nan -nan 0  -nan -nan 0  -nan -nan 0  nan -nan 0  -nan -nan 0  -nan -nan 0  -nan -nan 0  -nan -nan 0  -nan -nan 0  -nan -nan 0  -nan -nan 0  -nan -nan 0  -nan -nan 0  -nan -nan 0  -nan -nan 0  -nan -nan 0  nan nan 0  -nan -nan 0  nan nan 0  nan -nan 0  -nan -nan 0  -nan -nan 0  -nan -nan 0  -nan -nan 0  -nan -nan 0  -nan -nan 0  -nan -nan 0  nan nan 0  -nan -nan 0  -nan -nan 0  -nan -nan 0  -nan -nan 0  -nan -nan 0  -nan -nan 0  -nan -nan 0  nan nan 0  nan nan 0  nan -nan 0  -nan -nan 0  -nan -nan 0  -nan -nan 0  -nan -nan 0  -nan -nan 0  -nan -nan 0  -nan -nan 0  -nan -nan 0  -nan -nan 0  -nan -nan 0  -nan -nan 0  -nan -nan 0  -nan -nan 0  -nan -nan 0  nan -nan 0  -nan -nan 0  -nan -nan 0  -nan -nan 0  -nan -nan 0  -nan -nan 0  -nan -nan 0  nan nan 0  nan nan 0  nan nan 0  -nan -nan 0  nan nan 0  -nan -nan 0  nan nan 0  nan nan 0  nan -nan 0  -nan -nan 0  -nan -nan 0  -nan -nan 0  -nan -nan 0  -nan -nan 0  -nan -nan 0  nan nan 0  -nan -nan 0  -nan -nan 0  -nan -nan 0  -nan -nan 0  -nan -nan 0  -nan -nan 0  -nan -nan 0  -nan -nan 0  -nan -nan 0  -nan -nan 0  -nan -nan 0  -nan -nan 0  -nan -nan 0  -nan -nan 0  -nan -nan 0  -nan -nan 0  -nan -nan 0  -nan -nan 0  -nan -nan 0  -nan -nan 0  -nan -nan 0  -nan nan 0  nan nan 0  nan nan 0  -nan -nan 0  -nan -nan 0  -nan -nan 0  -nan -nan 0  -nan -nan 0  -nan -nan 0  -nan -nan 0  -nan -nan 0  -nan -nan 0  -nan -nan 0  -nan -nan 0  -nan -nan 0  -nan -nan 0  -nan -nan 0  -nan -nan 0  -nan -nan 0  -nan -nan 0  -nan -nan 0  -nan -nan 0  -nan -nan 0  -nan -nan 0  nan -nan 0  -nan -nan 0  -nan -nan 0  -nan -nan 0  -nan -nan 0  -nan -nan 0  -nan -nan 0  -nan -nan 0  -nan -nan 0  -nan -nan 0  -nan -nan 0  -nan -nan 0  -nan -nan 0  -nan -nan 0  nan -nan 0  -nan -nan 0  -nan -nan 0  -nan -nan 0  -nan nan 0  -nan -nan 0  -nan -nan 0  -nan -nan 0  -nan -nan 0  -nan -nan 0  -nan -nan 0  -nan -nan 0  -nan -nan 0  -nan -nan 0  -nan -nan 0  nan nan 0  -nan -nan 0  -nan -nan 0  -nan -nan 0  -nan -nan 0  -nan -nan 0  -nan -nan 0  -nan -nan 0  -nan nan 0  -nan -nan 0  -nan -nan 0  -nan -nan 0  nan nan 0  -nan -nan 0  -nan -nan 0  nan nan 0  -nan -nan 0  -nan -nan 0  -nan -nan 0  -nan -nan 0  -nan -nan 0  nan nan 0  nan nan 0  -nan -nan 0  -nan -nan 0  -nan -nan 0  nan nan 0  -nan -nan 0  -nan -nan 0  -nan -nan 0  nan nan 0  nan nan 0  -nan -nan 0  -nan nan 0  -nan -nan 0  -nan -nan 0  -nan -nan 0  -nan -nan 0  nan nan 0  -nan -nan 0  -nan -nan 0  -nan -nan 0  -nan -nan 0  -nan -nan 0  -nan -nan 0  -nan -nan 0  nan nan 0  -nan -nan 0  -nan -nan 0  -nan -nan 0  -nan -nan 0  nan nan 0  -nan -nan 0  -nan -nan 0  -nan -nan 0  -nan -nan 0  -nan -nan 0  -nan -nan 0  -nan -nan 0  -nan -nan 0  -nan -nan 0  -nan -nan 0  -nan -nan 0  nan -nan 0  -nan -nan 0  -nan -nan 0  -nan -nan 0  -nan -nan 0  -nan -nan 0  -nan -nan 0  -nan -nan 0  -nan -nan 0  nan nan 0  -nan -nan 0  -nan -nan 0  -nan -nan 0  -nan -nan 0  -nan -nan 0  -nan -nan 0  -nan -nan 0  nan nan 0  -nan -nan 0  nan nan 0  -nan -nan 0  -nan -nan 0  -nan -nan 0  -nan -nan 0  -nan -nan 0  -nan -nan 0  -nan -nan 0  -nan nan 0  -nan -nan 0  -nan -nan 0  -nan -nan 0  -nan -nan 0  -nan -nan 0  -nan -nan 0  -nan -nan 0  -nan -nan 0  -nan -nan 0  -nan -nan 0  -nan -nan 0  -nan -nan 0  -nan -nan 0  -nan -nan 0  -nan -nan 0  -nan -nan 0  -nan -nan 0  nan nan 0  -nan -nan 0  nan -nan 0  -nan -nan 0  nan nan 0  -nan -nan 0  -nan -nan 0  -nan -nan 0  -nan -nan 0  -nan -nan 0  -nan -nan 0  -nan -nan 0  -nan -nan 0  -nan -nan 0  nan nan 0  -nan -nan 0  nan nan 0  nan nan 0  -nan -nan 0  -nan -nan 0  -nan -nan 0  -nan -nan 0  nan nan 0  -nan -nan 0  nan nan 0  -nan -nan 0  -nan -nan 0  -nan nan 0  -nan -nan 0  -nan -nan 0  -nan -nan 0  -nan -nan 0  -nan -nan 0  -nan -nan 0  nan nan 0  -nan -nan 0  -nan -nan 0  -nan -nan 0  -nan -nan 0  nan nan 0  -nan -nan 0  -nan -nan 0  -nan -nan 0  -nan -nan 0  -nan -nan 0  -nan -nan 0  -nan -nan 0  -nan -nan 0  -nan -nan 0  -nan -nan 0  -nan -nan 0  -nan -nan 0  -nan -nan 0  nan -nan 0  -nan -nan 0  nan nan 0  -nan -
[...]
<PointData  Vectors="f_30-0"> 
<DataArray  type="Float64"  Name="f_30-0"  NumberOfComponents="3" format="ascii">0.0000000000000000e+00 0.0000000000000000e+00 0.0000000000000000e+00  0.0000000000000000e+00 0.0000000000000000e+00 0.0000000000000000e+00  0.0000000000000000e+00 0.0000000000000000e+00 0.0000000000000000e+00  0.0000000000000000e+00 0.0000000000000000e+00 0.0000000000000000e+00  -nan -nan 0.0000000000000000e+00  -nan -nan 0.0000000000000000e+00  0.0000000000000000e+00 0.0000000000000000e+00 0.0000000000000000e+00  0.0000000000000000e+00 0.0000000000000000e+00 0.0000000000000000e+00  0.0000000000000000e+00 0.0000000000000000e+00 0.0000000000000000e+00  0.0000000000000000e+00 0.0000000000000000e+00 0.0000000000000000e+00  -nan -nan 0.0000000000000000e+00  0.0000000000000000e+00 0.0000000000000000e+00 0.0000000000000000e+00  0.0000000000000000e+00 0.0000000000000000e+00 0.0000000000000000e+00  0.0000000000000000e+00 0.0000000000000000e+00 0.0000000000000000e+00  0.0000000000000000e+00 0.0000000000000000e+00 0.0000000000000000e+00  0.0000000000000000e+00 0.0000000000000000e+00 0.0000000000000000e+00  0.0000000000000000e+00 0.0000000000000000e+00 0.0000000000000000e+00  0.0000000000000000e+00 0.0000000000000000e+00 0.0000000000000000e+00  0.0000000000000000e+00 0.0000000000000000e+00 0.0000000000000000e+00  0.0000000000000000e+00 0.0000000000000000e+00 0.0000000000000000e+00  0.0000000000000000e+00 0.0000000000000000e+00 0.0000000000000000e+00  0.0000000000000000e+00 0.0000000000000000e+00 0.0000000000000000e+00  0.0000000000000000e+00 0.0000000000000000e+00 0.0000000000000000e+00  0.0000000000000000e+00 0.0000000000000000e+00 0.0000000000000000e+00  0.0000000000000000e+00 0.0000000000000000e+00 0.0000000000000000e+00  0.0000000000000000e+00 0.0000000000000000e+00 0.0000000000000000e+00  0.0000000000000000e+00 0.0000000000000000e+00 0.0000000000000000e+00  0.0000000000000000e+00 0.0000000000000000e+00 0.0000000000000000e+00  0.0000000000000000e+00 0.0000000000000000e+00 0.0000000000000000e+00  0.0000000000000000e+00 0.0000000000000000e+00 0.0000000000000000e+00  0.0000000000000000e+00 0.0000000000000000e+00 0.0000000000000000e+00  0.0000000000000000e+00 0.0000000000000000e+00 0.0000000000000000e+00  0.0000000000000000e+00 0.0000000000000000e+00 0.0000000000000000e+00  0.0000000000000000e+00 0.0000000000000000e+00 0.0000000000000000e+00  0.0000000000000000e+00 0.0000000000000000e+00 0.0000000000000000e+00  0.0000000000000000e+00 0.0000000000000000e+00 0.0000000000000000e+00  0.0000000000000000e+00 0.0000000000000000e+00 0.0000000000000000e+00  0.0000000000000000e+00 0.0000000000000000e+00 0.0000000000000000e+00  0.0000000000000000e+00 0.0000000000000000e+00 0.0000000000000000e+00  0.0000000000000000e+00 0.0000000000000000e+00 0.0000000000000000e+00  0.0000000000000000e+00 0.0000000000000000e+00 0.0000000000000000e+00  0.0000000000000000e+00 0.0000000000000000e+00 0.0000000000000000e+00  0.0000000000000000e+00 0.0000000000000000e+00 0.0000000000000000e+00  0.0000000000000000e+00 0.0000000000000000e+00 0.0000000000000000e+00  0.0000000000000000e+00 0.0000000000000000e+00 0.0000000000000000e+00  0.0000000000000000e+00 0.0000000000000000e+00 0.0000000000000000e+00  0.0000000000000000e+00 0.0000000000000000e+00 0.0000000000000000e+00  0.0000000000000000e+00 0.0000000000000000e+00 0.0000000000000000e+00  0.0000000000000000e+00 0.0000000000000000e+00 0.0000000000000000e+00  0.0000000000000000e+00 0.0000000000000000e+00 0.0000000000000000e+00  0.0000000000000000e+00 0.0000000000000000e+00 0.0000000000000000e+00  0.0000000000000000e+00 0.0000000000000000e+00 0.0000000000000000e+00  0.0000000000000000e+00 0.0000000000000000e+00 0.0000000000000000e+00  0.0000000000000000e+00 0.0000000000000000e+00 0.0000000000000000e+00  0.0000000000000000e+00 0.0000000000000000e+00 0.0000000000000000e+00  0.0000000000000000e+00 0.0000000000000000e+00 0.0000000000000000e+00  0.0000000000000000e+00 0.0000000000000000e+00 0.0000000000000000e+00  0.0000000000000000e+00 0.0000000000000000e+00 0.0000000000000000e+00  0.0000000000000000e+00 0.0000000000000000e+00 0.0000000000000000e+00  0.0000000000000000e+00 0.0000000000000000e+00 0.0000000000000000e+00  0.0000000000000000e+00 0.0000000000000000e+00 0.0000000000000000e+00  0.0000000000000000e+00 0.0000000000000000e+00 0.0000000000000000e+00  -nan -nan 0.0000000000000000e+00  -nan -nan 0.0000000000000000e+00  -nan -nan 0.0000000000000000e+00  0.0000000000000000e+00 0.0000000000000000e+00 0.0000000000000000e+00  0.0000000000000000e+00 0.0000000000000000e+00 0.0000000000000000e+00  0.0000000000000000e+00 0.0000000000000000e+00 0.0000000000000000e+00  0.0000000000000000e+00 0.0000000000000000e+00 0.0000000000000000e+00  0.0000000000000000e+00 0.0000000000000000e+00 0.0000000000000000e+00  0.0000000000000000e+00 0.0000000000000000e+00 0.0000000000000000e+00  0.0000000000000000e+00 0.0000000000000000e+00 0.0000000000000000e+00  0.0000000000000000e+00 0.0000000000000000e+00 0.0000000000000000e+00  0.0000000000000000e+00 0.0000000000000000e+00 0.0000000000000000e+00  0.0000000000000000e+00 0.0000000000000000e+00 0.0000000000000000e+00  0.0000000000000000e+00 0.0000000000000000e+00 0.0000000000000000e+00  0.0000000000000000e+00 0.0000000000000000e+00 0.0000000000000000e+00  0.0000000000000000e+00 0.0000000000000000e+00 0.0000000000000000e+00  0.0000000000000000e+00 0.0000000000000000e+00 0.0000000000000000e+00  0.0000000000000000e+00 0.0000000000000000e+00 0.0000000000000000e+00  0.0000000000000000e+00 0.0000000000000000e+00 0.0000000000000000e+00  0.0000000000000000e+00 0.0000000000000000e+00 0.0000000000000000e+00  0.0000000000000000e+00 0.0000000000000000e+00 0.0000000000000000e+00  0.0000000000000000e+00 0.0000000000000000e+00 0.0000000000000000e+00  0.0000000000000000e+00 0.0000000000000000e+00 0.0000000000000000e+00  0.0000000000000000e+00 0.0000000000000000e+00 0.0000000000000000e+00  0.0000000000000000e+00 0.0000000000000000e+00 0.0000000000000000e+00  0.0000000000000000e+00 0.0000000000000000e+00 0.0000000000000000e+00  0.0000000000000000e+00 0.0000000000000000e+00 0.0000000000000000e+00  0.0000000000000000e+00 0.0000000000000000e+00 0.0000000000000000e+00  0.0000000000000000e+00 0.0000000000000000e+00 0.0000000000000000e+00  0.0000000000000000e+00 0.0000000000000000e+00 0.0000000000000000e+00  0.0000000000000000e+00 0.0000000000000000e+00 0.0000000000000000e+00  0.0000000000000000e+00 0.0000000000000000e+00 0.0000000000000000e+00  0.0000000000000000e+00 0.0000000000000000e+00 0.0000000000000000e+00  0.0000000000000000e+00 0.0000000000000000e+00 0.0000000000000000e+00  0.0000000000000000e+00 0.0000000000000000e+00 0.0000000000000000e+00  0.0000000000000000e+00 0.0000000000000000e+00 0.0000000000000000e+00  0.0000000000000000e+00 0.0000000000000000e+00 0.0000000000000000e+00  0.0000000000000000e+00 0.0000000000000000e+00 0.0000000000000000e+00  0.0000000000000000e+00 0.0000000000000000e+00 0.0000000000000000e+00  0.0000000000000000e+00 0.0000000000000000e+00 0.0000000000000000e+00  0.0000000000000000e+00 0.0000000000000000e+00 0.0000000000000000e+00  0.0000000000000000e+00 0.0000000000000000e+00 0.0000000000000000e+00  0.0000000000000000e+00 0.0000000000000000e+00 0.0000000000000000e+00  0.0000000000000000e+00 0.0000000000000000e+00 0.0000000000000000e+00  0.0000000000000000e+00 0.0000000000000000e+00 0.0000000000000000e+00  0.0000000000000000e+00 0.0000000000000000e+00 0.0000000000000000e+00  0.0000000000000000e+00 0.0000000000000000e+00 0.0000000000000000e+00  0.0000000000000000e+00 0.0000000000000000e+00 0.0000000000000000e+00  0.0000000000000000e+00 0.0000000000000000e+00 0.0000000000000000e+00  0.0000000000000000e+00 0.0000000000000000e+00 0.0000000000000000e+00  0.0000000000000000e+00 0.0000000000000000e+00 0.0000000000000000e+00  0.0000000000000000e+00 0.0000000000000000e+00 0.0000000000000000e+00  0.0000000000000000e+00 0.0000000000000000e+00 0.0000000000000000e+00  0.0000000000000000e+00 0.0000000000000000e+00 0.0000000000000000e+00  0.0000000000000000e+00 0.0000000000000000e+00 0.0000000000000000e+00  0.0000000000000000e+00 0.0000000000000000e+00 0.0000000000000000e+00  0.0000000000000000e+00 0.0000000000000000e+00 0.0000000000000000e+00  0.0000000000000000e+00 0.0000000000000000e+00 0.0000000000000000e+00  0.0000000000000000e+00 0.0000000000000000e+00 0.0000000000000000e+00  0.0000000000000000e+00 0.0000000000000000e+00 0.0000000000000000e+00  0.0000000000000000e+00 0.0000000000000000e+00 0.0000000000000000e+00  0.0000000000000000e+00 0.0000000000000000e+00 0.0000000000000000e+00  0.0000000000000000e+00 0.0000000000000000e+00 0.0000000000000000e+00  0.0000000000000000e+00 0.0000000000000000e+00 0.0000000000000000e+00  0.0000000000000000e+00 0.0000000000000000e+00 0.0000000000000000e+00  0.0000000000000000e+00 0.0000000000000000e+00 0.0000000000000000e+00  0.0000000000000000e+00 0.0000000000000000e+00 0.0000000000000000e+00  0.0000000000000000e+00 0.0000000000000000e+00 0.0000000000000000e+00  0.0000000000000000e+00 0.0000000000000000e+00 0.0000000000000000e+00  0.0000000000000000e+00 0.0000000000000000e+00 0.0000000000000000e+00  0.0000000000000000e+00 0.0000000000000000e+00 0.0000000000000000e+00  0.0000000000000000e+00 0.0000000000000000e+00 0.0000000000000000e+00  0.0000000000000000e+00 0.0000000000000000e+00 0.0000000000000000e+00  0.0000000000000000e+00 0.0000000000000000e+00 0.0000000000000000e+00  0.0000000000000000e+00 0.0000000000000000e+00 0.0000000000000000e+00  0.0000000000000000e+00 0.0000000000000000e+00 0.0000000000000000e+00  0.0000000000000000e+00 0.0000000000000000e+00 0.0000000000000000e+00  0.0000000000000000e+00 0.0000000000000000e+00 0.0000000000000000e+00  0.0000000000000000e+00 0.0000000000000000e+00 0.0000000000000000e+00  0.0000000000000000e+00 0.0000000000000000e+00 0.0000000000000000e+00  0.0000000000000000e+00 0.0000000000000000e+00 0.0000000000000000e+00  nan nan 0.0000000000000000e+00  nan nan 0.0000000000000000e+00  nan nan 0.0000000000000000e+00  nan nan 0.0000000000000000e+00  -nan -nan 0.0000000000000000e+00  nan nan 0.0000000000000000e+00  nan nan 0.0000000000000000e+00  -nan -nan 0.0000000000000000e+00  nan nan 0.0000000000000000e+00  nan nan 0.0000000000000000e+00  nan nan 0.0000000000000000e+00  nan nan 0.0000000000000000e+00  nan nan 0.0000000000000000e+00  nan nan 0.0000000000000000e+00  nan nan 0.0000000000000000e+00  nan nan 0.0000000000000000e+00  nan nan 0.0000000000000000e+00  nan nan 0.0000000000000000e+00  nan nan 0.0000000000000000e+00  nan nan 0.0000000000000000e+00  nan nan 0.0000000000000000e+00  nan nan 0.0000000000000000e+00  nan nan 0.0000000000000000e+00  nan nan 0.0000000000000000e+00  nan nan 0.0000000000000000e+00  nan nan 0.0000000000000000e+00  nan nan 0.0000000000000000e+00  nan nan 0.0000000000000000e+00  -nan -nan 0.0000000000000000e+00  -nan -nan 0.0000000000000000e+00  -nan -nan 0.0000000000000000e+00  -nan -nan 0.0000000000000000e+00  -nan -nan 0.0000000000000000e+00  -nan -nan 0.0000000000000000e+00  -nan -nan 0.0000000000000000e+00  -nan -nan 0.0000000000000000e+00  -nan -nan 0.0000000000000000e+00  -nan -nan 0.0000000000000000e+00  -nan -nan 0.0000000000000000e+00  -nan -nan 0.0000000000000000e+00  -nan -nan 0.0000000000000000e+00  -nan -nan 0.0000000000000000e+00  -nan -nan 0.0000000000000000e+00  -nan -nan 0.0000000000000000e+00  -nan -nan 0.0000000000000000e+00  -nan -nan 0.0000000000000000e+00  -nan -nan 0.0000000000000000e+00  -nan -nan 0.0000000000000000e+00  -nan -nan 0.0000000000000000e+00  -nan -nan 0.0000000000000000e+00  -nan -nan 0.0000000000000000e+00  -nan -nan 0.0000000000000000e+00  -nan -nan 0.0000000000000000e+00  -nan -nan 0.0000000000000000e+00  -nan -nan 0.0000000000000000e+00  -nan -nan 0.0000000000000000e+00  -nan -nan 0.0000000000000000e+00  -nan -nan 0.0000000000000000e+00  -nan -nan 0.0000000000000000e+00  -nan -nan 0.0000000000000000e+00  -nan -nan 0.0000000000000000e+00  -nan -nan 0.0000000000000000e+00  -nan -nan 0.0000000000000000e+00  -nan -nan 0.0000000000000000e+00  -nan -nan 0.0000000000000000e+00  -nan -nan 0.0000000000000000e+00  -nan -nan 0.0000000000000000e+00  -nan -nan 0.0000000000000000e+00  -nan nan 0.0000000000000000e+00  -nan -nan 0.0000000000000000e+00  nan nan 0.0000000000000000e+00  nan nan 0.0000000000000000e+00  -nan -nan 0.0000000000000000e+00  nan nan 0.0000000000000000e+00  nan nan 0.0000000000000000e+00  -nan -nan 0.0000000000000000e+00  -nan -nan 0.0000000000000000e+00  nan nan 0.0000000000000000e+00  nan nan 0.0000000000000000e+00  nan nan 0.0000000000000000e+00  nan nan 0.0000000000000000e+00  nan nan 0.0000000000000000e+00  -nan nan 0.0000000000000000e+00  nan nan 0.0000000000000000e+00  nan nan 0.0000000000000000e+00  nan nan 0.0000000000000000e+00  nan nan 0.0000000000000000e+00  nan nan 0.0000000000000000e+00  nan nan 0.0000000000000000e+00  nan nan 0.0000000000000000e+00  -nan -nan 0.0000000000000000e+00  nan -nan 0.0000000000000000e+00  -nan -nan 0.0000000000000000e+00  -nan -nan 0.0000000000000000e+00  nan nan 0.0000000000000000e+00  -nan -nan 0.0000000000000000e+00  -nan -nan 0.0000000000000000e+00  -nan -nan 0.0000000000000000e+00  -nan -nan 0.0000000000000000e+00  -nan -nan 0.0000000000000000e+00  nan nan 0.0000000000000000e+00  -nan -nan 0.0000000000000000e+00  nan nan 0.0000000000000000e+00  nan nan 0.0000000000000000e+00  -nan -nan 0.0000000000000000e+00  nan nan 0.0000000000000000e+00  -nan -nan 0.0000000000000000e+00  nan nan 0.0000000000000000e+00  nan nan 0.0000000000000000e+00  -nan -nan 0.0000000000000000e+00  -nan -nan 0.0000000000000000e+00  nan nan 0.0000000000000000e+00  -nan -nan 0.0000000000000000e+00  nan nan 0.0000000000000000e+00  nan nan 0.0000000000000000e+00  -nan -nan 0.0000000000000000e+00  nan nan 0.0000000000000000e+00  -nan -nan 0.0000000000000000e+00  nan nan 0.0000000000000000e+00  -nan -nan 0.0000000000000000e+00  -nan -nan 0.0000000000000000e+00  -nan -nan 0.0000000000000000e+00  -nan -nan 0.0000000000000000e+00  -nan nan 0.0000000000000000e+00  -nan -nan 0.0000000000000000e+00  -nan -nan 0.0000000000000000e+00  nan nan 0.0000000000000000e+00  nan nan 0.0000000000000000e+00  -nan -nan 0.0000000000000000e+00  nan nan 0.0000000000000000e+00  nan nan 0.0000000000000000e+00  -nan -nan 0.0000000000000000e+00  -nan -nan 0.0000000000000000e+00  nan nan 0.0000000000000000e+00  nan nan 0.0000000000000000e+00  nan -nan 0.0000000000000000e+00  -nan -nan 0.0000000000000000e+00  -nan -nan 0.0000000000000000e+00  -nan -nan 0.0000000000000000e+00  nan nan 0.0000000000000000e+00  nan nan 0.0000000000000000e+00  -nan -nan 0.0000000000000000e+00  nan nan 0.0000000000000000e+00  -nan -nan 0.0000000000000000e+00  -nan -nan 0.0000000000000000e+00  -nan -nan 0.0000000000000000e+00  nan nan 0.0000000000000000e+00  nan nan 0.0000000000000000e+00  -nan -nan 0.0000000000000000e+00  -nan -nan 0.0000000000000000e+00  nan nan 0.0000000000000000e+00  nan nan 0.0000000000000000e+00  -nan -nan 0.0000000000000000e+00  -nan -nan 0.0000000000000000e+00  -nan -nan 0.0000000000000000e+00  nan nan 0.0000000000000000e+00  nan -nan 0.0000000000000000e+00  nan nan 0.0000000000000000e+00  nan nan 0.0000000000000000e+00  -nan -nan 0.0000000000000000e+00  nan nan 0.0000000000000000e+00  nan nan 0.0000000000000000e+00  -nan -nan 0.0000000000000000e+00  -nan -nan 0.0000000000000000e+00  nan nan 0.0000000000000000e+00  nan nan 0.0000000000000000e+00  nan nan 0.0000000000000000e+00  -nan -nan 0.0000000000000000e+00  nan nan 0.0000000000000000e+00  nan nan 0.0000000000000000e+00  nan nan 0.0000000000000000e+00  nan nan 0.0000000000000000e+00  nan nan 0.0000000000000000e+00  -nan -nan 0.0000000000000000e+00  -nan -nan 0.0000000000000000e+00  -nan -nan 0.0000000000000000e+00  -nan -nan 0.0000000000000000e+00  nan nan 0.0000000000000000e+00  nan nan 0.0000000000000000e+00  -nan -nan 0.0000000000000000e+00  nan nan 0.0000000000000000e+00  -nan -nan 0.0000000000000000e+00  nan nan 0.0000000000000000e+00  nan nan 0.0000000000000000e+00  -nan -nan 0.0000000000000000e+00  -nan -nan 0.0000000000000000e+00  -nan -nan 0.0000000000000000e+00  nan nan 0.0000000000000000e+00  -nan -nan 0.0000000000000000e+00  -nan -nan 0.0000000000000000e+00  nan nan 0.0000000000000000e+00  -nan -nan 0.0000000000000000e+00  -nan -nan 0.0000000000000000e+00  nan nan 0.0000000000000000e+00  -nan -nan 0.0000000000000000e+00  -nan -nan 0.0000000000000000e+00  -nan -nan 0.0000000000000000e+00  nan nan 0.0000000000000000e+00  nan nan 0.0000000000000000e+00  -nan -nan 0.0000000000000000e+00  -nan -nan 0.0000000000000000e+00  nan nan 0.0000000000000000e+00  -nan -nan 0.0000000000000000e+00  -nan -nan 0.0000000000000000e+00  nan nan 0.0000000000000000e+00  -nan -nan 0.0000000000000000e+00  nan nan 0.0000000000000000e+00  -nan -nan 0.0000000000000000e+00  nan nan 0.0000000000000000e+00  nan nan 0.0000000000000000e+00  nan nan 0.0000000000000000e+00  -nan -nan 0.0000000000000000e+00  nan nan 0.0000000000000000e+00  nan nan 0.0000000000000000e+00  nan nan 0.0000000000000000e+00  -nan nan 0.0000000000000000e+00  nan nan 0.0000000000000000e+00  nan nan 0.0000000000000000e+00  -nan -nan 0.0000000000000000e+00  -nan -nan 0.0000000000000000e+00  -nan -nan 0.0000000000000000e+00  -nan -nan 0.0000000000000000e+00  -nan -nan 0.0000000000000000e+00  -nan -nan 0.0000000000000000e+00  -nan -nan 0.0000000000000000e+00  -nan -nan 0.0000000000000000e+00  -nan -nan 0.0000000000000000e+00  -nan -nan 0.0000000000000000e+00  -nan -nan 0.0000000000000000e+00  -nan -nan 0.0000000000000000e+00  -nan -nan 0.0000000000000000e+00  -nan -nan 0.0000000000000000e+00  -nan -nan 0.0000000000000000e+00  -nan nan 0.0000000000000000e+00  -nan -nan 0.0000000000000000e+00  -nan -nan 0.0000000000000000e+00  nan nan 0.0000000000000000e+00  -nan -nan 0.0000000000000000e+00  nan nan 0.0000000000000000e+00  -nan -nan 0.0000000000000000e+00  -nan -nan 0.0000000000000000e+00  -nan -nan 0.0000000000000000e+00  -nan -nan 0.0000000000000000e+00  -nan nan 0.0000000000000000e+00  -nan -nan 0.0000000000000000e+00  -nan -nan 0.0000000000000000e+00  -nan -nan 0.0000000000000000e+00  nan -nan 0.0000000000000000e+00  -nan -nan 0.0000000000000000e+00  -nan -nan 0.0000000000000000e+00  -nan -nan 0.0000000000000000e+00  -nan -nan 0.0000000000000000e+00  -nan -nan 0.0000000000000000e+00  -nan -nan 0.0000000000000000e+00  -nan nan 0.0000000000000000e+00  -nan -nan 0.0000000000000000e+00  -nan -nan 0.0000000000000000e+00  -nan -nan 0.0000000000000000e+00  -nan -nan 0.0000000000000000e+00  -nan -nan 0.0000000000000000e+00  -nan -nan 0.0000000000000000e+00  -nan -nan 0.0000000000000000e+00  -nan -nan 0.0000000000000000e+00  -nan -nan 0.0000000000000000e+00  -nan -nan 0.0000000000000000e+00  -nan -nan 0.0000000000000000e+00  -nan -nan 0.0000000000000000e+00  nan nan 0.0000000000000000e+00  -nan -nan 0.0000000000000000e+00  nan nan 0.0000000000000000e+00  nan nan 0.0000000000000000e+00  nan nan 0.0000000000000000e+00  -nan -nan 0.0000000000000000e+00  -nan -nan 0.0000000000000000e+00  nan nan 0.0000000000000000e+00  -nan -nan 0.0000000000000000e+00  nan nan 0.0000000000000000e+00  -nan -nan 0.0000000000000000e+00  -nan -nan 0.0000000000000000e+00  -nan -nan 0.0000000000000000e+00  -nan -nan 0.0000000000000000e+00  -nan -nan 0.0000000000000000e+00  -nan -nan 0.0000000000000000e+00  -nan -nan 0.0000000000000000e+00  -nan -nan 0.0000000000000000e+00  -nan -nan 0.0000000000000000e+00  -nan -nan 0.0000000000000000e+00  -nan -nan 0.0000000000000000e+00  -nan -nan 0.0000000000000000e+00  -nan -nan 0.0000000000000000e+00  -nan -nan 0.0000000000000000e+00  -nan -nan 0.0000000000000000e+00  -nan -nan 0.0000000000000000e+00  -nan -nan 0.0000000000000000e+00  -nan -nan 0.0000000000000000e+00  -nan -nan 0.0000000000000000e+00  -nan -nan 0.0000000000000000e+00  -nan -nan 0.0000000000000000e+00  -nan -nan 0.0000000000000000e+00  -nan -nan 0.0000000000000000e+00  nan nan 0.0000000000000000e+00  -nan -nan 0.0000000000000000e+00  nan nan 0.0000000000000000e+00  -nan -nan 0.0000000000000