<?xml version="1.0"?>
<VTKFile type="UnstructuredGrid"  version="0.1"  >
<UnstructuredGrid>
<Piece  NumberOfPoints="1419" NumberOfCells="2698">
<Points>
<DataArray  type="Float64"  NumberOfComponents="3"  format="ascii">0 0 0  0 0.41 0  2.5 0 0  2.5 0.41 0  0.5999999849142441 0.190000002610032 0  0.599999984937173 0.2099999972094229 0  0.25 0.2 0  0.15 0.2 0  0.2489897948556636 0.21 0  0.2489897948556636 0.19 0  0.5999999849172488 0.1999999999106345 0  0 0.3807142857143437 0  0 0.3514285714286952 0  0 0.3221428571430699 0  0 0.29285714285744 0  0 0.2635714285718054 0  0 0.2342857142861561 0  0 0.2050000000005308 0  0 0.175714285714732 0  0 0.1464285714289574 0  0 0.1171428571431897 0  0 0.08785714285737878 0  0 0.05857142857161107 0  0 0.02928571428580012 0  0.03015443760436003 0 0  0.06140001986583606 0 0  0.09377624077125973 0 0  0.1273239957535082 0 0  0.1620856860351972 0 0  0.1981052433264291 0 0  0.235428184091502 0 0  0.2741016576309132 0 0  0.3141745521465447 0 0  0.3556974926295285 0 0  0.3987229542472677 0 0  0.4433053055141081 0 0  0.4895008759286886 0 0  0.5373680609405097 0 0  0.5869673343216626 0 0  0.6383613676634521 0 0  0.6916151138468254 0 0  0.7467958595648856 0 0  0.8039733463919316 0 0  0.8632198139502143 0 0  0.9246101326867038 0 0  0.9882218810934433 0 0  1.054135445558498 0 0  1.122434100542598 0 0  1.193204177141305 0 0  1.266535089879536 0 0  1.342519516046404 0 0  1.421253448503939 0 0  1.502836389106271 0 0  1.587371439758838 0 0  1.674965418777374 0 0  1.765729001825544 0 0  1.859776908880082 0 0  1.957227977487062 0 0  2.058205329869943 0 0  2.162836591189951 0 0  2.271253957290865 0 0  2.383594446803425 0 0  2.5 0.1024999999997612 0  2.5 0.2049999999994743 0  2.5 0.3074999999997183 0  2.383594446803656 0.41 0  2.271253957291315 0.41 0  2.162836591190598 0.41 0  2.058205329870775 0.41 0  1.957227977488067 0.41 0  1.859776908881246 0.41 0  1.765729001826854 0.41 0  1.674965418778818 0.41 0  1.58737143976041 0.41 0  1.502836389107956 0.41 0  1.421253448505726 0.41 0  1.342519516048286 0.41 0  1.266535089881505 0.41 0  1.193204177143353 0.41 0  1.122434100544716 0.41 0  1.05413544556068 0.41 0  0.9882218810956305 0.41 0  0.9246101326886647 0.41 0  0.8632198139519631 0.41 0  0.8039733463934788 0.41 0  0.7467958595662458 0.41 0  0.6916151138480078 0.41 0  0.6383613676644679 0.41 0  0.5869673343225223 0.41 0  0.5373680609412221 0.41 0  0.4895008759292634 0.41 0  0.4433053055145528 0.41 0  0.3987229542475914 0.41 0  0.3556974926297398 0.41 0  0.3141745521466497 0.41 0  0.2741016576310038 0.41 0  0.2354281840915826 0.41 0  0.1981052433265003 0.41 0  0.1620856860352591 0.41 0  0.1273239957535623 0.41 0  0.09377624077128965 0.41 0  0.06140001986584975 0.41 0  0.03015443760436654 0.41 0  0.2497468076502589 0.2050254481002335 0  0.2497468076502614 0.1949745518997913 0  0.2469965252529372 0.1829317073451959 0  0.2439893735792749 0.1762316384219906 0  0.2400332147834255 0.1700443375285386 0  0.2352133972704371 0.1645032867342007 0  0.2296339016332438 0.1597280261969788 0  0.2234150974217223 0.1558215752574715 0  0.2166911463437691 0.1528682099456123 0  0.2096071079204251 0.1509316448471593 0  0.2023158100364996 0.1500536585536553 0  0.194974551899914 0.1502531923497262 0  0.1877417105387872 0.1515259415822739 0  0.1807733240461124 0.153844448527136 0  0.1742197252835808 0.15715869474974 0  0.1682222986673531 0.1613971801805478 0  0.162910430003803 0.1664684656256651 0  0.1583987151779087 0.1722631454351573 0  0.1547844879126891 0.178656207771761 0  0.1521457199348551 0.1855097315605723 0  0.1505393388476355 0.1926758619366523 0  0.1505393388476328 0.2073241380633295 0  0.1521457199348437 0.2144902684393899 0  0.1547844879126531 0.221343792228163 0  0.1583987151778488 0.2277368545647528 0  0.1629104300036858 0.2335315343742052 0  0.1682222986671726 0.2386028198193036 0  0.1742197252833576 0.2428413052501257 0  0.1807733240458683 0.2461555514727623 0  0.1877417105384929 0.2484740584176516 0  0.1949745518995776 0.2497468076502398 0  0.202315810036185 0.2499463414463592 0  0.2096071079201568 0.2490683551528932 0  0.2166911463435495 0.2471317900544655 0  0.2234150974215506 0.2441784247426195 0  0.2296339016331197 0.2402719738031125 0  0.2352133972703547 0.2354967132658811 0  0.2400332147833751 0.2299556624715287 0  0.2439893735792577 0.2237683615780412 0  0.246996525252926 0.2170682926548348 0  0.2564580975398547 0.2099999943316667 0  0.263926399511236 0.2099999941461943 0  0.271394702044392 0.2099999942177537 0  0.2788630046461643 0.2099999942891352 0  0.2863313072446567 0.2099999943330872 0  0.2937996098057794 0.2099999943832332 0  0.3012679123390845 0.2099999944391152 0  0.3087362148369417 0.2099999944989033 0  0.3162045173087235 0.2099999945624302 0  0.3236728197506204 0.209999994619508 0  0.3311411221640087 0.2099999946850591 0  0.3386094245487835 0.2099999947404958 0  0.346077726903822 0.2099999948002802 0  0.3535460292331414 0.2099999948564277 0  0.3610143315302283 0.2099999949111999 0  0.3684826338030605 0.2099999949654547 0  0.3759509360478958 0.2099999950136767 0  0.3834192382658113 0.2099999950685689 0  0.3908875404573271 0.2099999951148352 0  0.3983558426218565 0.2099999951685521 0  0.4058241447604378 0.2099999952158835 0  0.413292446870683 0.2099999952678804 0  0.4207607489564898 0.2099999953185069 0  0.4282290510093261 0.2099999953704883 0  0.4356973530356801 0.2099999954233302 0  0.4431656550305319 0.2099999954747385 0  0.4506339569933951 0.2099999955312069 0  0.458102258923329 0.2099999955848279 0  0.4655705608165006 0.2099999956453847 0  0.4730388626727632 0.2099999957014465 0  0.4805071644881669 0.2099999957666216 0  0.4879754662599471 0.2099999958269869 0  0.4954437679875243 0.2099999958973917 0  0.50291206966422 0.209999995965972 0  0.5103803712857087 0.20999999604294 0  0.5178486728515346 0.2099999961147819 0  0.5253169743563778 0.2099999961982924 0  0.5327852757967514 0.20999999627816 0  0.5402535771654642 0.2099999963732605 0  0.5477218784585909 0.2099999964629706 0  0.5551901796712805 0.2099999965640219 0  0.5626584808016852 0.2099999966706806 0  0.5701267818313404 0.2099999967783489 0  0.5775950827664696 0.2099999968949879 0  0.5850633835973513 0.209999997012718 0  0.5925316843288322 0.2099999971571837 0  0.5999999849024009 0.2049999985421339 0  0.5999999848947705 0.1950000012802165 0  0.5925316843108817 0.1900000026785704 0  0.585063383585377 0.1900000028355742 0  0.5775950827597802 0.1900000029603988 0  0.5701267818276368 0.1900000030836995 0  0.5626584808005899 0.1900000031928551 0  0.5551901796730491 0.1900000032970383 0  0.547721878462422 0.1900000033966832 0  0.5402535771692808 0.1900000034793306 0  0.5327852758014823 0.1900000035729389 0  0.5253169743626567 0.1900000036479586 0  0.5178486728574586 0.1900000037340024 0  0.5103803712904846 0.190000003801609 0  0.5029120696667962 0.1900000038782024 0  0.4954437679902203 0.1900000039384793 0  0.4879754662643518 0.1900000040082677 0  0.4805071644923349 0.1900000040644707 0  0.4730388626766787 0.1900000041300406 0  0.4655705608201381 0.1900000041825917 0  0.4581022589258137 0.1900000042431567 0  0.4506339569962419 0.1900000042920122 0  0.4431656550332565 0.1900000043495663 0  0.4356973530384686 0.1900000043976678 0  0.4282290510118535 0.1900000044517566 0  0.4207607489583171 0.1900000045027013 0  0.4132924468722108 0.1900000045537542 0  0.4058241447611413 0.1900000046041306 0  0.3983558426229146 0.1900000046523096 0  0.3908875404583651 0.190000004705582 0  0.383419238267078 0.1900000047549835 0  0.3759509360489863 0.1900000048091189 0  0.3684826338048086 0.1900000048587102 0  0.3610143315337389 0.1900000049110971 0  0.353546029238664 0.1900000049635791 0  0.3460777269112646 0.1900000050156151 0  0.3386094245576312 0.1900000050683913 0  0.3311411221741539 0.1900000051166803 0  0.3236728197608365 0.1900000051706608 0  0.3162045173170591 0.190000005218905 0  0.3087362148412213 0.1900000052729986 0  0.3012679123350209 0.1900000053277341 0  0.2937996097920907 0.1900000053870771 0  0.2863313072182951 0.1900000054499721 0  0.2788630046076768 0.1900000055192268 0  0.2713947019981361 0.1900000056316561 0  0.2639263994654425 0.1900000057533527 0  0.2564580974881227 0.1900000056019997 0  0.2607803155231264 0.2000727135489665 0  0.5887803647692531 0.2001272385858021 0  0.5745072304307609 0.2002044433689549 0  0.55118913669128 0.2001122609005498 0  0.2751288533267464 0.1999999999132463 0  0.5365194265186114 0.1999999999262742 0  0.2894621236505786 0.1998691685971762 0  0.5215828236394964 0.1999999999237465 0  0.3127789839035558 0.1998657885034128 0  0.3274069709848341 0.1999999998980903 0  0.5066462205065755 0.1999999999218035 0  0.3650630778174702 0.1998660177864849 0  0.4767730136080557 0.1999999999155986 0  0.341740240882306 0.1998691686123565 0  0.3796850871787651 0.1999999999118567 0  0.4618364098958455 0.1999999999138185 0  0.4917096171531136 0.1999999999180458 0  0.3946216915613997 0.1999999999104144 0  0.446899806036721 0.1999999999118436 0  0.4089549609873311 0.1998691686104663 0  0.432271819832492 0.2001274511188824 0  0.4201487194812742 0.1999966198171186 0  0.352892274392974 0.2000185702541883 0  0.5633122355772355 0.1999814295850149 0  0.3006558828239919 0.1999966197883932 0  0.5815926385787236 0.1966545292346527 0  0.2677053791303787 0.196424649960174 0  0.5290511251115649 0.19709158368297 0  0.5439877278487949 0.1970915836352228 0  0.2825131267326737 0.2035478975103213 0  0.3199386685542492 0.2029084156647098 0  0.4842413154016298 0.1970915838009734 0  0.5141145221011213 0.197091583727365 0  0.3722167849461412 0.2029084157947147 0  0.4693047117703477 0.197091583834366 0  0.3348752733805042 0.202908415708101 0  0.3871533893819463 0.2029084158238715 0  0.4543681079823155 0.197091583865347 0  0.4991779188539823 0.197091583766127 0  0.4020059644886728 0.2035478978348457 0  0.4394315040560161 0.1970915838952071 0  0.2550657446023775 0.2034088109321108 0  0.2548908489761146 0.1966940326662377 0  0.5946539371154004 0.2024302965
[...]
<PointData  Vectors="f_44-0"> 
<DataArray  type="Float64"  Name="f_44-0"  NumberOfComponents="3" format="ascii">0.0000000000000000e+00 0.0000000000000000e+00 0.0000000000000000e+00  0.0000000000000000e+00 0.0000000000000000e+00 0.0000000000000000e+00  0.0000000000000000e+00 0.0000000000000000e+00 0.0000000000000000e+00  0.0000000000000000e+00 0.0000000000000000e+00 0.0000000000000000e+00  -6.8439628795232755e-06 9.7112705447902021e-07 0.0000000000000000e+00  -6.8297783858273183e-06 -1.0491899530269563e-06 0.0000000000000000e+00  0.0000000000000000e+00 0.0000000000000000e+00 0.0000000000000000e+00  0.0000000000000000e+00 0.0000000000000000e+00 0.0000000000000000e+00  0.0000000000000000e+00 0.0000000000000000e+00 0.0000000000000000e+00  0.0000000000000000e+00 0.0000000000000000e+00 0.0000000000000000e+00  -6.8629018952960886e-06 -3.5509930307592255e-08 0.0000000000000000e+00  1.7674517866872788e-06 0.0000000000000000e+00 0.0000000000000000e+00  3.2629879138844231e-06 0.0000000000000000e+00 0.0000000000000000e+00  4.4866083815910826e-06 0.0000000000000000e+00 0.0000000000000000e+00  5.4383131898086746e-06 0.0000000000000000e+00 0.0000000000000000e+00  6.1181023385370720e-06 0.0000000000000000e+00 0.0000000000000000e+00  6.5259758277762408e-06 0.0000000000000000e+00 0.0000000000000000e+00  6.6619336575257662e-06 0.0000000000000000e+00 0.0000000000000000e+00  6.5259758277844859e-06 0.0000000000000000e+00 0.0000000000000000e+00  6.1181023385512386e-06 0.0000000000000000e+00 0.0000000000000000e+00  5.4383131898262167e-06 0.0000000000000000e+00 0.0000000000000000e+00  4.4866083816077480e-06 0.0000000000000000e+00 0.0000000000000000e+00  3.2629879138986444e-06 0.0000000000000000e+00 0.0000000000000000e+00  1.7674517866952913e-06 0.0000000000000000e+00 0.0000000000000000e+00  0.0000000000000000e+00 0.0000000000000000e+00 0.0000000000000000e+00  0.0000000000000000e+00 0.0000000000000000e+00 0.0000000000000000e+00  0.0000000000000000e+00 0.0000000000000000e+00 0.0000000000000000e+00  0.0000000000000000e+00 0.0000000000000000e+00 0.0000000000000000e+00  0.0000000000000000e+00 0.0000000000000000e+00 0.0000000000000000e+00  0.0000000000000000e+00 0.0000000000000000e+00 0.0000000000000000e+00  0.0000000000000000e+00 0.0000000000000000e+00 0.0000000000000000e+00  0.0000000000000000e+00 0.0000000000000000e+00 0.0000000000000000e+00  0.0000000000000000e+00 0.0000000000000000e+00 0.0000000000000000e+00  0.0000000000000000e+00 0.0000000000000000e+00 0.0000000000000000e+00  0.0000000000000000e+00 0.0000000000000000e+00 0.0000000000000000e+00  0.0000000000000000e+00 0.0000000000000000e+00 0.0000000000000000e+00  0.0000000000000000e+00 0.0000000000000000e+00 0.0000000000000000e+00  0.0000000000000000e+00 0.0000000000000000e+00 0.0000000000000000e+00  0.0000000000000000e+00 0.0000000000000000e+00 0.0000000000000000e+00  0.0000000000000000e+00 0.0000000000000000e+00 0.0000000000000000e+00  0.0000000000000000e+00 0.0000000000000000e+00 0.0000000000000000e+00  0.0000000000000000e+00 0.0000000000000000e+00 0.0000000000000000e+00  0.0000000000000000e+00 0.0000000000000000e+00 0.0000000000000000e+00  0.0000000000000000e+00 0.0000000000000000e+00 0.0000000000000000e+00  0.0000000000000000e+00 0.0000000000000000e+00 0.0000000000000000e+00  0.0000000000000000e+00 0.0000000000000000e+00 0.0000000000000000e+00  0.0000000000000000e+00 0.0000000000000000e+00 0.0000000000000000e+00  0.0000000000000000e+00 0.0000000000000000e+00 0.0000000000000000e+00  0.0000000000000000e+00 0.0000000000000000e+00 0.0000000000000000e+00  0.0000000000000000e+00 0.0000000000000000e+00 0.0000000000000000e+00  0.0000000000000000e+00 0.0000000000000000e+00 0.0000000000000000e+00  0.0000000000000000e+00 0.0000000000000000e+00 0.0000000000000000e+00  0.0000000000000000e+00 0.0000000000000000e+00 0.0000000000000000e+00  0.0000000000000000e+00 0.0000000000000000e+00 0.0000000000000000e+00  0.0000000000000000e+00 0.0000000000000000e+00 0.0000000000000000e+00  0.0000000000000000e+00 0.0000000000000000e+00 0.0000000000000000e+00  0.0000000000000000e+00 0.0000000000000000e+00 0.0000000000000000e+00  0.0000000000000000e+00 0.0000000000000000e+00 0.0000000000000000e+00  0.0000000000000000e+00 0.0000000000000000e+00 0.0000000000000000e+00  0.0000000000000000e+00 0.0000000000000000e+00 0.0000000000000000e+00  0.0000000000000000e+00 0.0000000000000000e+00 0.0000000000000000e+00  0.0000000000000000e+00 0.0000000000000000e+00 0.0000000000000000e+00  1.3988970897794010e-06 -2.7910699228613729e-09 0.0000000000000000e+00  1.4472512986955837e-06 2.1781260337926832e-09 0.0000000000000000e+00  1.4005987209160615e-06 5.7253904612233887e-09 0.0000000000000000e+00  0.0000000000000000e+00 0.0000000000000000e+00 0.0000000000000000e+00  0.0000000000000000e+00 0.0000000000000000e+00 0.0000000000000000e+00  0.0000000000000000e+00 0.0000000000000000e+00 0.0000000000000000e+00  0.0000000000000000e+00 0.0000000000000000e+00 0.0000000000000000e+00  0.0000000000000000e+00 0.0000000000000000e+00 0.0000000000000000e+00  0.0000000000000000e+00 0.0000000000000000e+00 0.0000000000000000e+00  0.0000000000000000e+00 0.0000000000000000e+00 0.0000000000000000e+00  0.0000000000000000e+00 0.0000000000000000e+00 0.0000000000000000e+00  0.0000000000000000e+00 0.0000000000000000e+00 0.0000000000000000e+00  0.0000000000000000e+00 0.0000000000000000e+00 0.0000000000000000e+00  0.0000000000000000e+00 0.0000000000000000e+00 0.0000000000000000e+00  0.0000000000000000e+00 0.0000000000000000e+00 0.0000000000000000e+00  0.0000000000000000e+00 0.0000000000000000e+00 0.0000000000000000e+00  0.0000000000000000e+00 0.0000000000000000e+00 0.0000000000000000e+00  0.0000000000000000e+00 0.0000000000000000e+00 0.0000000000000000e+00  0.0000000000000000e+00 0.0000000000000000e+00 0.0000000000000000e+00  0.0000000000000000e+00 0.0000000000000000e+00 0.0000000000000000e+00  0.0000000000000000e+00 0.0000000000000000e+00 0.0000000000000000e+00  0.0000000000000000e+00 0.0000000000000000e+00 0.0000000000000000e+00  0.0000000000000000e+00 0.0000000000000000e+00 0.0000000000000000e+00  0.0000000000000000e+00 0.0000000000000000e+00 0.0000000000000000e+00  0.0000000000000000e+00 0.0000000000000000e+00 0.0000000000000000e+00  0.0000000000000000e+00 0.0000000000000000e+00 0.0000000000000000e+00  0.0000000000000000e+00 0.0000000000000000e+00 0.0000000000000000e+00  0.0000000000000000e+00 0.0000000000000000e+00 0.0000000000000000e+00  0.0000000000000000e+00 0.0000000000000000e+00 0.0000000000000000e+00  0.0000000000000000e+00 0.0000000000000000e+00 0.0000000000000000e+00  0.0000000000000000e+00 0.0000000000000000e+00 0.0000000000000000e+00  0.0000000000000000e+00 0.0000000000000000e+00 0.0000000000000000e+00  0.0000000000000000e+00 0.0000000000000000e+00 0.0000000000000000e+00  0.0000000000000000e+00 0.0000000000000000e+00 0.0000000000000000e+00  0.0000000000000000e+00 0.0000000000000000e+00 0.0000000000000000e+00  0.0000000000000000e+00 0.0000000000000000e+00 0.0000000000000000e+00  0.0000000000000000e+00 0.0000000000000000e+00 0.0000000000000000e+00  0.0000000000000000e+00 0.0000000000000000e+00 0.0000000000000000e+00  0.0000000000000000e+00 0.0000000000000000e+00 0.0000000000000000e+00  0.0000000000000000e+00 0.0000000000000000e+00 0.0000000000000000e+00  0.0000000000000000e+00 0.0000000000000000e+00 0.0000000000000000e+00  0.0000000000000000e+00 0.0000000000000000e+00 0.0000000000000000e+00  0.0000000000000000e+00 0.0000000000000000e+00 0.0000000000000000e+00  0.0000000000000000e+00 0.0000000000000000e+00 0.0000000000000000e+00  0.0000000000000000e+00 0.0000000000000000e+00 0.0000000000000000e+00  0.0000000000000000e+00 0.0000000000000000e+00 0.0000000000000000e+00  0.0000000000000000e+00 0.0000000000000000e+00 0.0000000000000000e+00  0.0000000000000000e+00 0.0000000000000000e+00 0.0000000000000000e+00  0.0000000000000000e+00 0.0000000000000000e+00 0.0000000000000000e+00  0.0000000000000000e+00 0.0000000000000000e+00 0.0000000000000000e+00  0.0000000000000000e+00 0.0000000000000000e+00 0.0000000000000000e+00  0.0000000000000000e+00 0.0000000000000000e+00 0.0000000000000000e+00  0.0000000000000000e+00 0.0000000000000000e+00 0.0000000000000000e+00  0.0000000000000000e+00 0.0000000000000000e+00 0.0000000000000000e+00  0.0000000000000000e+00 0.0000000000000000e+00 0.0000000000000000e+00  0.0000000000000000e+00 0.0000000000000000e+00 0.0000000000000000e+00  0.0000000000000000e+00 0.0000000000000000e+00 0.0000000000000000e+00  0.0000000000000000e+00 0.0000000000000000e+00 0.0000000000000000e+00  0.0000000000000000e+00 0.0000000000000000e+00 0.0000000000000000e+00  0.0000000000000000e+00 0.0000000000000000e+00 0.0000000000000000e+00  0.0000000000000000e+00 0.0000000000000000e+00 0.0000000000000000e+00  0.0000000000000000e+00 0.0000000000000000e+00 0.0000000000000000e+00  0.0000000000000000e+00 0.0000000000000000e+00 0.0000000000000000e+00  0.0000000000000000e+00 0.0000000000000000e+00 0.0000000000000000e+00  0.0000000000000000e+00 0.0000000000000000e+00 0.0000000000000000e+00  0.0000000000000000e+00 0.0000000000000000e+00 0.0000000000000000e+00  0.0000000000000000e+00 0.0000000000000000e+00 0.0000000000000000e+00  0.0000000000000000e+00 0.0000000000000000e+00 0.0000000000000000e+00  0.0000000000000000e+00 0.0000000000000000e+00 0.0000000000000000e+00  0.0000000000000000e+00 0.0000000000000000e+00 0.0000000000000000e+00  0.0000000000000000e+00 0.0000000000000000e+00 0.0000000000000000e+00  0.0000000000000000e+00 0.0000000000000000e+00 0.0000000000000000e+00  0.0000000000000000e+00 0.0000000000000000e+00 0.0000000000000000e+00  0.0000000000000000e+00 0.0000000000000000e+00 0.0000000000000000e+00  0.0000000000000000e+00 0.0000000000000000e+00 0.0000000000000000e+00  0.0000000000000000e+00 0.0000000000000000e+00 0.0000000000000000e+00  0.0000000000000000e+00 0.0000000000000000e+00 0.0000000000000000e+00  0.0000000000000000e+00 0.0000000000000000e+00 0.0000000000000000e+00  0.0000000000000000e+00 0.0000000000000000e+00 0.0000000000000000e+00  0.0000000000000000e+00 0.0000000000000000e+00 0.0000000000000000e+00  0.0000000000000000e+00 0.0000000000000000e+00 0.0000000000000000e+00  1.0093113494686703e-07 -1.5180041938523739e-06 0.0000000000000000e+00  3.3623123579618067e-08 -1.9707056827883417e-06 0.0000000000000000e+00  9.1197554619158404e-08 -1.9834542518785293e-06 0.0000000000000000e+00  2.1933730005534937e-07 -1.9774940929788646e-06 0.0000000000000000e+00  3.2973008411127150e-07 -1.9678122941160464e-06 0.0000000000000000e+00  4.3637334656078801e-07 -1.9605769818073691e-06 0.0000000000000000e+00  5.3170596549373801e-07 -1.9503913830494089e-06 0.0000000000000000e+00  6.2351974199978271e-07 -1.9383633590799562e-06 0.0000000000000000e+00  7.0472036622096493e-07 -1.9251447814327878e-06 0.0000000000000000e+00  7.7849373705186519e-07 -1.9066185701551353e-06 0.0000000000000000e+00  8.4364666168422720e-07 -1.8932561185496979e-06 0.0000000000000000e+00  8.9958572002921661e-07 -1.8737613645417568e-06 0.0000000000000000e+00  9.4659042360451276e-07 -1.8575421212708750e-06 0.0000000000000000e+00  9.8120371125708174e-07 -1.8414591893813825e-06 0.0000000000000000e+00  1.0087548169444318e-06 -1.8249214189970326e-06 0.0000000000000000e+00  1.0233892572977688e-06 -1.8100322170015692e-06 0.0000000000000000e+00  1.0273990381241596e-06 -1.7907116248456577e-06 0.0000000000000000e+00  1.0196319894612851e-06 -1.7770285259241925e-06 0.0000000000000000e+00  9.9997034521889582e-07 -1.7574868156228392e-06 0.0000000000000000e+00  9.6837642730224788e-07 -1.7426644155778254e-06 0.0000000000000000e+00  9.2376284847354930e-07 -1.7229729871703519e-06 0.0000000000000000e+00  8.6649804545871756e-07 -1.7050957814787420e-06 0.0000000000000000e+00  7.9385120909564555e-07 -1.6870867141210596e-06 0.0000000000000000e+00  7.1031126977142044e-07 -1.6675596554351520e-06 0.0000000000000000e+00  6.1048300563467543e-07 -1.6486765043208316e-06 0.0000000000000000e+00  4.9561268145857243e-07 -1.6261697017604180e-06 0.0000000000000000e+00  3.6467744412095080e-07 -1.6069710506985968e-06 0.0000000000000000e+00  2.1744236197022993e-07 -1.5830496760916489e-06 0.0000000000000000e+00  5.2608045429775149e-08 -1.5617736342751933e-06 0.0000000000000000e+00  -1.3011522544829589e-07 -1.5368239027828803e-06 0.0000000000000000e+00  -3.3179613843177580e-07 -1.5136298675085842e-06 0.0000000000000000e+00  -5.5355662404275216e-07 -1.4867368290707223e-06 0.0000000000000000e+00  -7.9520349992960650e-07 -1.4622521160451398e-06 0.0000000000000000e+00  -1.0591152284905152e-06 -1.4318834719536690e-06 0.0000000000000000e+00  -1.3461148579902973e-06 -1.4057042737729651e-06 0.0000000000000000e+00  -1.6563141885268460e-06 -1.3746309219148449e-06 0.0000000000000000e+00  -1.9904881016531299e-06 -1.3469637082683181e-06 0.0000000000000000e+00  -2.3499329286917068e-06 -1.3137268743054857e-06 0.0000000000000000e+00  -2.7354386414582927e-06 -1.2836312056310197e-06 0.0000000000000000e+00  -3.1488500905054708e-06 -1.2483163821619134e-06 0.0000000000000000e+00  -3.5887184316434546e-06 -1.2154018230407442e-06 0.0000000000000000e+00  -4.0613254320535438e-06 -1.1823869617062674e-06 0.0000000000000000e+00  -4.5571133700419798e-06 -1.1476503932920671e-06 0.0000000000000000e+00  -5.0860565215071470e-06 -1.1132374049976508e-06 0.0000000000000000e+00  -5.6455184280932769e-06 -1.0730250022258260e-06 0.0000000000000000e+00  -6.2345456175326261e-06 -1.0456590019398938e-06 0.0000000000000000e+00  -6.8518486437727284e-06 -5.3658459511211804e-07 0.0000000000000000e+00  -6.8558198203665357e-06 4.6146896782094182e-07 0.0000000000000000e+00  -6.2400662975346478e-06 9.7989569946049147e-07 0.0000000000000000e+00  -5.6519627914073073e-06 1.0113258354560654e-06 0.0000000000000000e+00  -5.0910533977503319e-06 1.0577657027046962e-06 0.0000000000000000e+00  -4.5596473131736624e-06 1.0938581691359736e-06 0.0000000000000000e+00  -4.0625776067834658e-06 1.1304524413105146e-06 0.0000000000000000e+00  -3.5890701393411665e-06 1.1631154632176163e-06 0.0000000000000000e+00  -3.1485656203936463e-06 1.1951487759253013e-06 0.0000000000000000e+00  -2.7349143779822772e-06 1.2306808502826557e-06 0.0000000000000000e+00  -2.3489283652068407e-06 1.2575961627272274e-06 0.0000000000000000e+00  -1.9889221662824121e-06 1.2917828411463220e-06 0.0000000000000000e+00  -1.6547361293425591e-06 1.3176300191652089e-06 0.0000000000000000e+00  -1.3449537953079151e-06 1.3493760634884560e-06 0.0000000000000000e+00  -1.0586886861932029e-06 1.3731842825116479e-06 0.0000000000000000e+00  -7.9475510731714903e-07 1.4022938551660527e-06 0.0000000000000000e+00  -5.5255587505324400e-07 1.4245399182575737e-06 0.0000000000000000e+00  -3.3084099873264246e-07 1.4518981212671098e-06 0.0000000000000000e+00  -1.2929573375717927e-07 1.4731523465325703e-06 0.0000000000000000e+00  5.3253751393843637e-08 1.4987943285849880e-06 0.0000000000000000e+00  2.1762087497626318e-07 1.5182911153605715e-06 0.0000000000000000e+00  3.6494175780491847e-07 1.5420163896733152e-06 0.0000000000000000e+00  4.9572715903969527e-07 1.5603770223273818e-06 0.0000000000000000e+00  6.1064276562259838e-07 1.5828330820865924e-06 0.0000000000000000e+00  7.1061895424694850e-07 1.6018242137912068e-06 0.0000000000000000e+00  7.9404907837391029e-07 1.6207327448878701e-06 0.0000000000000000e+00  8.6641482631712244e-07 1.6392576130847094e-06 0.0000000000000000e+00  9.2369069660972880e-07 1.6568874881915712e-06 0.0000000000000000e+00  9.6830963178488339e-07 1.6766037026911508e-06 0.0000000000000000e+00  1.0002984557489997e-06 1.6924123283084465e-06 0.0000000000000000e+00  1.0200790675063476e-06 1.7117861022733403e-06 0.0000000000000000e+00  1.0280078296106844e-06 1.7268131872825861e-06 0.0000000000000000e+00  1.0245289933556407e-06 1.7449611749378918e-06 0.0000000000000000e+00  1.0104101514511183e-06 1.7597178711815765e-06 0.0000000000000000e+00  9.8368628897943248e-07 1.7747237135471961e-06 0.0000000000000000e+00  9.5000557861899190e-07 1.7884302656703257e-06 0.0000000000000000e+00  9.0406767954272706e-07 1.8017800589045449e-06 0.0000000000000000e+00  8.4827456897269850e-07 1.8162217710928058e-06 0.0000000000000000e+00  7.8266335657309264e-07 1.8265885393047108e-06 0.0000000000000000e+00  7.0730864563435516e-07 1.8404537230358993e-06 0.0000000000000000e+00  6.2301047768461036e-07 1.8522386273939970e-06 0.0000000000000000e+00  5.2803894286964172e-07 1.8653720145244325e-06 0.0000000000000000e+00  4.2797597559178715e-07 1.8795955121270698e-06 0.0000000000000000e+00  3.1753485202432095e-07 1.8954473864603167e-06 0.0000000000000000e+00  2.0369991420692449e-07 1.9176400007673381e-06 0.0000000000000000e+00  7.3245993394156506e-08 1.9380431006704109e-06 0.0000000000000000e+00  1.5984754073821689e-08 1.9407443870649679e-06 0.0000000000000000e+00  1.0282648548430212e-07 1.5122298937213945e-06 0.0000000000000000e+00  -1.7640953405214444e-07 -2.6575524295887607e-08 0.0000000000000000e+00  -5.9374535105124622e-06 -4.5411244338632497e-08 0.0000000000000000e+00  -4.8588425330461226e-06 -4.9413048213539457e-08 0.0000000000000000e+00  -3.3431152785050171e-06 -4.0079234085772627e-08 0.0000000000000000e+00  1.4900375403133062e-07 -2.6646712365682422e-08 0.0000000000000000e+00  -2.5334455748044633e-06 -2.7151593795105245e-08 0.0000000000000000e+00  3.7297453161747999e-07 -1.3593324504528988e-08 0.0000000000000000e+00  -1.8137234779263815e-06 -2.8060752959631726e-08 0.0000000000000000e+00  6.7188206812730645e-07 -1.8187136111510845e-08 0.0000000000000000e+00  8.1723754139688004e-07 -3.9342061972488730e-08 0.0000000000000000e+00  -1.1935801683995844e-06 -2.9013053191021107e-08 0.0000000000000000e+00  1.0228791935737185e-06 -8.6022591909264803e-09 0.0000000000000000e+00  -2.2251589474783466e-07 -3.1413465313931577e-08 0.0000000000000000e+00  9.2617521822755298e-07 -1.0930479444527940e-08 0.0000000000000000e+00  1.0293997635925065e-06 -3.2195374520944968e-08 0.0000000000000000e+00  1.4294563582402519e-07 -3.2110224887609862e-08 0.0000000000000000e+00  -6.6564381532143984e-07 -3.0392138192047856e-08 0.0000000000000000e+00  9.9019916418509766e-07 -3.2520560400655825e-08 0.0000000000000000e+00  4.3756017878686536e-07 -3.2717377469215508e-08 0.0000000000000000e+00  9.0630050077219306e-07 -1.0867793391498868e-08 0.0000000000000000e+00  6.6349725185316447e-07 -5.3439846482783069e-08 0.0000000000000000e+00  8.0610508824602679e-07 -3.2495816378550177e-08 0.0000000000000000e+00  9.8431031261638860e-07 -3.6603202160005442e-08 0.0000000000000000e+00  -4.0951817511100344e-06 -2.3705316642528463e-08 0.0000000000000000e+00  5.2545418151525290e-07 -4.2586422022525806e-08 0.0000000000000000e+00  -5.3818090916823680e-06 3.2658953832621291e-07 0.0000000000000000e+00  9.3439022034134214e-09 6.9297406685293986e-07 0.0000000000000000e+00  -2.1609304959073770e-06 3.5128162573482218e-07 0.0000000000000000e+00  -2.9332039295136830e-06 3.3426543841730736e-07 0.0000000000000000e+00  2.6964055581454026e-07 -7.2078129003208311e-07 0.0000000000000000e+00  7.4627465899736735e-07 -5.8691249860932074e-07 0.0000000000000000e+00  -4.3439600223832016e-07 3.9650495405655984e-07 0.0000000000000000e+00  -1.4919900209874131e-06 3.6778443427168409e-07 0.0000000000000000e+00  1.0305721299325879e-06 -5.4645081445466374e-07 0.0000000000000000e+00  -3.1018730451164239e-08 4.0983742107415301e-07 0.0000000000000000e+00  8.7714382122615840e-07 -5.7442304050971160e-07 0.0000000000000000e+00  1.0151533766912819e-06 -5.3723269728105817e-07 0.0000000000000000e+00  2.9812550494059560e-07 4.2220238583352889e-07 0.0000000000000000e+00  -9.1895494040210860e-07 3.8271486749395122e-07 0.0000000000000000e+00  9.5191234181241675e-07 -6.3625014558362459e-07 0.0000000000000000e+00  5.5967455818747957e-07 4.3384844207441624e-07 0.0000000000000000e+00  -1.4374024470106275e-07 -5.5615077770255043e-07 0.0000000000000000e+00  -1.5144150121951442e-07 5.0911801062992763e-07 0.0000000000000000e+00  -6.4127751652087346e-06 -2.7792501699965370e-07 0.0000000000000000e+00  1.9644643735242032e-08 -8.1177794912100380e-07 0.0000000000000000e+00  7.398