<?xml version="1.0"?>
<VTKFile type="UnstructuredGrid"  version="0.1"  >
<UnstructuredGrid>
<Piece  NumberOfPoints="1419" NumberOfCells="2698">
<Points>
<DataArray  type="Float64"  NumberOfComponents="3"  format="ascii">0 0 0  0 0.41 0  2.5 0 0  2.5 0.41 0  0.5999999998007463 0.1900000000899714 0  0.5999999998010631 0.2099999999048439 0  0.25 0.2 0  0.15 0.2 0  0.2489897948556636 0.21 0  0.2489897948556636 0.19 0  0.5999999998037751 0.1999999999975077 0  0 0.3807142857143437 0  0 0.3514285714286952 0  0 0.3221428571430699 0  0 0.29285714285744 0  0 0.2635714285718054 0  0 0.2342857142861561 0  0 0.2050000000005308 0  0 0.175714285714732 0  0 0.1464285714289574 0  0 0.1171428571431897 0  0 0.08785714285737878 0  0 0.05857142857161107 0  0 0.02928571428580012 0  0.03015443760436003 0 0  0.06140001986583606 0 0  0.09377624077125973 0 0  0.1273239957535082 0 0  0.1620856860351972 0 0  0.1981052433264291 0 0  0.235428184091502 0 0  0.2741016576309132 0 0  0.3141745521465447 0 0  0.3556974926295285 0 0  0.3987229542472677 0 0  0.4433053055141081 0 0  0.4895008759286886 0 0  0.5373680609405097 0 0  0.5869673343216626 0 0  0.6383613676634521 0 0  0.6916151138468254 0 0  0.7467958595648856 0 0  0.8039733463919316 0 0  0.8632198139502143 0 0  0.9246101326867038 0 0  0.9882218810934433 0 0  1.054135445558498 0 0  1.122434100542598 0 0  1.193204177141305 0 0  1.266535089879536 0 0  1.342519516046404 0 0  1.421253448503939 0 0  1.502836389106271 0 0  1.587371439758838 0 0  1.674965418777374 0 0  1.765729001825544 0 0  1.859776908880082 0 0  1.957227977487062 0 0  2.058205329869943 0 0  2.162836591189951 0 0  2.271253957290865 0 0  2.383594446803425 0 0  2.5 0.1024999999997612 0  2.5 0.2049999999994743 0  2.5 0.3074999999997183 0  2.383594446803656 0.41 0  2.271253957291315 0.41 0  2.162836591190598 0.41 0  2.058205329870775 0.41 0  1.957227977488067 0.41 0  1.859776908881246 0.41 0  1.765729001826854 0.41 0  1.674965418778818 0.41 0  1.58737143976041 0.41 0  1.502836389107956 0.41 0  1.421253448505726 0.41 0  1.342519516048286 0.41 0  1.266535089881505 0.41 0  1.193204177143353 0.41 0  1.122434100544716 0.41 0  1.05413544556068 0.41 0  0.9882218810956305 0.41 0  0.9246101326886647 0.41 0  0.8632198139519631 0.41 0  0.8039733463934788 0.41 0  0.7467958595662458 0.41 0  0.6916151138480078 0.41 0  0.6383613676644679 0.41 0  0.5869673343225223 0.41 0  0.5373680609412221 0.41 0  0.4895008759292634 0.41 0  0.4433053055145528 0.41 0  0.3987229542475914 0.41 0  0.3556974926297398 0.41 0  0.3141745521466497 0.41 0  0.2741016576310038 0.41 0  0.2354281840915826 0.41 0  0.1981052433265003 0.41 0  0.1620856860352591 0.41 0  0.1273239957535623 0.41 0  0.09377624077128965 0.41 0  0.06140001986584975 0.41 0  0.03015443760436654 0.41 0  0.2497468076502589 0.2050254481002335 0  0.2497468076502614 0.1949745518997913 0  0.2469965252529372 0.1829317073451959 0  0.2439893735792749 0.1762316384219906 0  0.2400332147834255 0.1700443375285386 0  0.2352133972704371 0.1645032867342007 0  0.2296339016332438 0.1597280261969788 0  0.2234150974217223 0.1558215752574715 0  0.2166911463437691 0.1528682099456123 0  0.2096071079204251 0.1509316448471593 0  0.2023158100364996 0.1500536585536553 0  0.194974551899914 0.1502531923497262 0  0.1877417105387872 0.1515259415822739 0  0.1807733240461124 0.153844448527136 0  0.1742197252835808 0.15715869474974 0  0.1682222986673531 0.1613971801805478 0  0.162910430003803 0.1664684656256651 0  0.1583987151779087 0.1722631454351573 0  0.1547844879126891 0.178656207771761 0  0.1521457199348551 0.1855097315605723 0  0.1505393388476355 0.1926758619366523 0  0.1505393388476328 0.2073241380633295 0  0.1521457199348437 0.2144902684393899 0  0.1547844879126531 0.221343792228163 0  0.1583987151778488 0.2277368545647528 0  0.1629104300036858 0.2335315343742052 0  0.1682222986671726 0.2386028198193036 0  0.1742197252833576 0.2428413052501257 0  0.1807733240458683 0.2461555514727623 0  0.1877417105384929 0.2484740584176516 0  0.1949745518995776 0.2497468076502398 0  0.202315810036185 0.2499463414463592 0  0.2096071079201568 0.2490683551528932 0  0.2166911463435495 0.2471317900544655 0  0.2234150974215506 0.2441784247426195 0  0.2296339016331197 0.2402719738031125 0  0.2352133972703547 0.2354967132658811 0  0.2400332147833751 0.2299556624715287 0  0.2439893735792577 0.2237683615780412 0  0.246996525252926 0.2170682926548348 0  0.2564580971377328 0.2099999995929463 0  0.2639263993627028 0.2099999996016629 0  0.2713947016217276 0.2099999996223204 0  0.2788630038801585 0.2099999996420698 0  0.2863313061343956 0.209999999656766 0  0.2937996083835305 0.2099999996709425 0  0.3012679106295537 0.2099999996847058 0  0.3087362128710696 0.2099999996962975 0  0.3162045151110497 0.2099999997079657 0  0.3236728173488896 0.2099999997173575 0  0.3311411195854774 0.2099999997277436 0  0.3386094218209443 0.2099999997360981 0  0.3460777240553841 0.2099999997447568 0  0.3535460262897787 0.2099999997531951 0  0.3610143285229218 0.2099999997604668 0  0.3684826307564116 0.2099999997679721 0  0.375950932989518 0.2099999997743346 0  0.3834192352225724 0.2099999997813404 0  0.3908875374555826 0.2099999997870448 0  0.3983558396885922 0.2099999997933168 0  0.4058241419216884 0.2099999997986385 0  0.4132924441547238 0.2099999998040719 0  0.4207607463881943 0.2099999998095072 0  0.428229048621216 0.2099999998141175 0  0.4356973508546413 0.2099999998188769 0  0.4431656530880406 0.2099999998231555 0  0.4506339553214984 0.2099999998275421 0  0.4581022575550002 0.2099999998313902 0  0.4655705597884754 0.2099999998353898 0  0.4730388620219114 0.2099999998388013 0  0.4805071642552923 0.2099999998424343 0  0.4879754664884339 0.2099999998455074 0  0.4954437687214876 0.209999999848759 0  0.5029120709541954 0.2099999998516618 0  0.5103803731863535 0.2099999998546679 0  0.5178486754179221 0.2099999998572703 0  0.5253169776487061 0.2099999998600874 0  0.532785279878515 0.2099999998626304 0  0.5402535821069046 0.209999999865591 0  0.5477218843334577 0.2099999998683594 0  0.5551901865576927 0.2099999998715307 0  0.5626584887791215 0.2099999998753834 0  0.5701267909963783 0.2099999998791263 0  0.57759509320888 0.2099999998840573 0  0.585063395415259 0.2099999998897126 0  0.592531697613789 0.2099999998978942 0  0.5999999998020822 0.204999999950634 0  0.5999999998021049 0.1950000000444915 0  0.5925316976136726 0.1900000000970582 0  0.5850633954154391 0.1900000001053903 0  0.5775950932092528 0.1900000001109363 0  0.5701267909967054 0.1900000001158342 0  0.5626584887794969 0.1900000001194099 0  0.5551901865580736 0.1900000001230188 0  0.5477218843339092 0.1900000001260339 0  0.5402535821073484 0.1900000001285451 0  0.5327852798790741 0.1900000001314163 0  0.5253169776493439 0.1900000001337929 0  0.5178486754185729 0.1900000001366636 0  0.510380373187002 0.1900000001390736 0  0.5029120709548115 0.1900000001420588 0  0.4954437687221985 0.1900000001446311 0  0.4879754664892492 0.1900000001478887 0  0.4805071642561243 0.1900000001507685 0  0.4730388620227803 0.1900000001544227 0  0.465570559789393 0.1900000001576239 0  0.4581022575559112 0.1900000001616508 0  0.4506339553224945 0.1900000001651795 0  0.4431656530890702 0.1900000001696435 0  0.4356973508557515 0.1900000001736324 0  0.428229048622315 0.1900000001785271 0  0.4207607463892686 0.1900000001830314 0  0.4132924441557492 0.1900000001884598 0  0.4058241419226244 0.1900000001937065 0  0.3983558396895524 0.1900000001990371 0  0.3908875374565047 0.1900000002051793 0  0.3834192352234567 0.1900000002111053 0  0.375950932990277 0.1900000002178793 0  0.3684826307570636 0.1900000002243758 0  0.361014328523621 0.1900000002316349 0  0.3535460262904646 0.1900000002388582 0  0.346077724056037 0.1900000002472459 0  0.3386094218214513 0.1900000002558025 0  0.331141119585966 0.190000000264268 0  0.3236728173494098 0.1900000002742668 0  0.3162045151115535 0.190000000283788 0  0.3087362128717659 0.190000000294951 0  0.301267910630247 0.1900000003061281 0  0.2937996083842153 0.1900000003192825 0  0.2863313061347183 0.1900000003327214 0  0.2788630038798794 0.1900000003468574 0  0.2713947016206881 0.1900000003666939 0  0.2639263993607329 0.1900000003885613 0  0.2564580971339927 0.1900000003992506 0  0.2607803159846236 0.2000727136224506 0  0.5887803772965767 0.2001272386947719 0  0.5745072403068804 0.2002044434971034 0  0.5511891429989041 0.2001122610036376 0  0.2751288527577108 0.1999999999945407 0  0.5365194309944346 0.1999999999971118 0  0.289462122405263 0.1998691686382436 0  0.5215828265351282 0.1999999999969936 0  0.3127789817924265 0.1998657885436765 0  0.3274069684717922 0.1999999999960299 0  0.5066462220721865 0.1999999999968839 0  0.3650630747697927 0.1998660178068144 0  0.4767730131409817 0.1999999999966143 0  0.3417402380827438 0.1998691686383922 0  0.3796850841091907 0.1999999999963288 0  0.4618364086743839 0.1999999999965033 0  0.4917096176071253 0.1999999999967196 0  0.3946216885749803 0.19999999999634 0  0.4468998042077049 0.1999999999963647 0  0.4089549581815703 0.199869168637976 0  0.4322718175364348 0.2001274512598697 0  0.420148716885177 0.1999966199012908 0  0.3528922714409267 0.200018570348916 0  0.5633122436318967 0.1999814296444394 0  0.3006558811286201 0.1999966199004276 0  0.5815926497234004 0.1966545283501829 0  0.267705378984468 0.196424648047494 0  0.5290511287653457 0.1970915827225146 0  0.5439877332218632 0.1970915827210836 0  0.2825131257910711 0.2035478994708758 0  0.3199386662346785 0.202908417228005 0  0.484241315374098 0.1970915827270745 0  0.5141145243039678 0.1970915827239452 0  0.3722167818761054 0.202908417245045 0  0.4693047109076595 0.1970915827289237 0  0.3348752707072735 0.2029084172336696 0  0.3871533863419574 0.202908417248855 0  0.4543681064409775 0.1970915827309801 0  0.4991779198398006 0.1970915827254404 0  0.4020059615845115 0.2035478995237301 0  0.4394315019743467 0.1970915827332829 0  0.2550657454844306 0.2034088124191693 0  0.2548908498639045 0.1966940312687627 0  0.5946539508589203 0.2024302
[...]
<PointData  Vectors="f_44-0"> 
<DataArray  type="Float64"  Name="f_44-0"  NumberOfComponents="3" format="ascii">0.0000000000000000e+00 0.0000000000000000e+00 0.0000000000000000e+00  0.0000000000000000e+00 0.0000000000000000e+00 0.0000000000000000e+00  0.0000000000000000e+00 0.0000000000000000e+00 0.0000000000000000e+00  0.0000000000000000e+00 0.0000000000000000e+00 0.0000000000000000e+00  -2.9436214641511174e-07 1.2154136896108572e-07 0.0000000000000000e+00  -2.9369070632417285e-07 -1.2877052406662571e-07 0.0000000000000000e+00  0.0000000000000000e+00 0.0000000000000000e+00 0.0000000000000000e+00  0.0000000000000000e+00 0.0000000000000000e+00 0.0000000000000000e+00  0.0000000000000000e+00 0.0000000000000000e+00 0.0000000000000000e+00  0.0000000000000000e+00 0.0000000000000000e+00 0.0000000000000000e+00  -2.9074537720626728e-07 -3.3187617760460137e-09 0.0000000000000000e+00  1.9638482400952702e-07 0.0000000000000000e+00 0.0000000000000000e+00  3.6255659817145856e-07 0.0000000000000000e+00 0.0000000000000000e+00  4.9851532248575568e-07 0.0000000000000000e+00 0.0000000000000000e+00  6.0426099695257563e-07 0.0000000000000000e+00 0.0000000000000000e+00  6.7979362157190466e-07 0.0000000000000000e+00 0.0000000000000000e+00  7.2511319634373874e-07 0.0000000000000000e+00 0.0000000000000000e+00  7.4021972126803181e-07 0.0000000000000000e+00 0.0000000000000000e+00  7.2511319634465491e-07 0.0000000000000000e+00 0.0000000000000000e+00  6.7979362157347877e-07 0.0000000000000000e+00 0.0000000000000000e+00  6.0426099695452476e-07 0.0000000000000000e+00 0.0000000000000000e+00  4.9851532248760729e-07 0.0000000000000000e+00 0.0000000000000000e+00  3.6255659817303870e-07 0.0000000000000000e+00 0.0000000000000000e+00  1.9638482401041733e-07 0.0000000000000000e+00 0.0000000000000000e+00  0.0000000000000000e+00 0.0000000000000000e+00 0.0000000000000000e+00  0.0000000000000000e+00 0.0000000000000000e+00 0.0000000000000000e+00  0.0000000000000000e+00 0.0000000000000000e+00 0.0000000000000000e+00  0.0000000000000000e+00 0.0000000000000000e+00 0.0000000000000000e+00  0.0000000000000000e+00 0.0000000000000000e+00 0.0000000000000000e+00  0.0000000000000000e+00 0.0000000000000000e+00 0.0000000000000000e+00  0.0000000000000000e+00 0.0000000000000000e+00 0.0000000000000000e+00  0.0000000000000000e+00 0.0000000000000000e+00 0.0000000000000000e+00  0.0000000000000000e+00 0.0000000000000000e+00 0.0000000000000000e+00  0.0000000000000000e+00 0.0000000000000000e+00 0.0000000000000000e+00  0.0000000000000000e+00 0.0000000000000000e+00 0.0000000000000000e+00  0.0000000000000000e+00 0.0000000000000000e+00 0.0000000000000000e+00  0.0000000000000000e+00 0.0000000000000000e+00 0.0000000000000000e+00  0.0000000000000000e+00 0.0000000000000000e+00 0.0000000000000000e+00  0.0000000000000000e+00 0.0000000000000000e+00 0.0000000000000000e+00  0.0000000000000000e+00 0.0000000000000000e+00 0.0000000000000000e+00  0.0000000000000000e+00 0.0000000000000000e+00 0.0000000000000000e+00  0.0000000000000000e+00 0.0000000000000000e+00 0.0000000000000000e+00  0.0000000000000000e+00 0.0000000000000000e+00 0.0000000000000000e+00  0.0000000000000000e+00 0.0000000000000000e+00 0.0000000000000000e+00  0.0000000000000000e+00 0.0000000000000000e+00 0.0000000000000000e+00  0.0000000000000000e+00 0.0000000000000000e+00 0.0000000000000000e+00  0.0000000000000000e+00 0.0000000000000000e+00 0.0000000000000000e+00  0.0000000000000000e+00 0.0000000000000000e+00 0.0000000000000000e+00  0.0000000000000000e+00 0.0000000000000000e+00 0.0000000000000000e+00  0.0000000000000000e+00 0.0000000000000000e+00 0.0000000000000000e+00  0.0000000000000000e+00 0.0000000000000000e+00 0.0000000000000000e+00  0.0000000000000000e+00 0.0000000000000000e+00 0.0000000000000000e+00  0.0000000000000000e+00 0.0000000000000000e+00 0.0000000000000000e+00  0.0000000000000000e+00 0.0000000000000000e+00 0.0000000000000000e+00  0.0000000000000000e+00 0.0000000000000000e+00 0.0000000000000000e+00  0.0000000000000000e+00 0.0000000000000000e+00 0.0000000000000000e+00  0.0000000000000000e+00 0.0000000000000000e+00 0.0000000000000000e+00  0.0000000000000000e+00 0.0000000000000000e+00 0.0000000000000000e+00  0.0000000000000000e+00 0.0000000000000000e+00 0.0000000000000000e+00  0.0000000000000000e+00 0.0000000000000000e+00 0.0000000000000000e+00  0.0000000000000000e+00 0.0000000000000000e+00 0.0000000000000000e+00  0.0000000000000000e+00 0.0000000000000000e+00 0.0000000000000000e+00  1.7458298915108068e-08 -4.0838866414771859e-11 0.0000000000000000e+00  1.8049620956107816e-08 2.8693032204005595e-11 0.0000000000000000e+00  1.7481327326383322e-08 7.8394355964520163e-11 0.0000000000000000e+00  0.0000000000000000e+00 0.0000000000000000e+00 0.0000000000000000e+00  0.0000000000000000e+00 0.0000000000000000e+00 0.0000000000000000e+00  0.0000000000000000e+00 0.0000000000000000e+00 0.0000000000000000e+00  0.0000000000000000e+00 0.0000000000000000e+00 0.0000000000000000e+00  0.0000000000000000e+00 0.0000000000000000e+00 0.0000000000000000e+00  0.0000000000000000e+00 0.0000000000000000e+00 0.0000000000000000e+00  0.0000000000000000e+00 0.0000000000000000e+00 0.0000000000000000e+00  0.0000000000000000e+00 0.0000000000000000e+00 0.0000000000000000e+00  0.0000000000000000e+00 0.0000000000000000e+00 0.0000000000000000e+00  0.0000000000000000e+00 0.0000000000000000e+00 0.0000000000000000e+00  0.0000000000000000e+00 0.0000000000000000e+00 0.0000000000000000e+00  0.0000000000000000e+00 0.0000000000000000e+00 0.0000000000000000e+00  0.0000000000000000e+00 0.0000000000000000e+00 0.0000000000000000e+00  0.0000000000000000e+00 0.0000000000000000e+00 0.0000000000000000e+00  0.0000000000000000e+00 0.0000000000000000e+00 0.0000000000000000e+00  0.0000000000000000e+00 0.0000000000000000e+00 0.0000000000000000e+00  0.0000000000000000e+00 0.0000000000000000e+00 0.0000000000000000e+00  0.0000000000000000e+00 0.0000000000000000e+00 0.0000000000000000e+00  0.0000000000000000e+00 0.0000000000000000e+00 0.0000000000000000e+00  0.0000000000000000e+00 0.0000000000000000e+00 0.0000000000000000e+00  0.0000000000000000e+00 0.0000000000000000e+00 0.0000000000000000e+00  0.0000000000000000e+00 0.0000000000000000e+00 0.0000000000000000e+00  0.0000000000000000e+00 0.0000000000000000e+00 0.0000000000000000e+00  0.0000000000000000e+00 0.0000000000000000e+00 0.0000000000000000e+00  0.0000000000000000e+00 0.0000000000000000e+00 0.0000000000000000e+00  0.0000000000000000e+00 0.0000000000000000e+00 0.0000000000000000e+00  0.0000000000000000e+00 0.0000000000000000e+00 0.0000000000000000e+00  0.0000000000000000e+00 0.0000000000000000e+00 0.0000000000000000e+00  0.0000000000000000e+00 0.0000000000000000e+00 0.0000000000000000e+00  0.0000000000000000e+00 0.0000000000000000e+00 0.0000000000000000e+00  0.0000000000000000e+00 0.0000000000000000e+00 0.0000000000000000e+00  0.0000000000000000e+00 0.0000000000000000e+00 0.0000000000000000e+00  0.0000000000000000e+00 0.0000000000000000e+00 0.0000000000000000e+00  0.0000000000000000e+00 0.0000000000000000e+00 0.0000000000000000e+00  0.0000000000000000e+00 0.0000000000000000e+00 0.0000000000000000e+00  0.0000000000000000e+00 0.0000000000000000e+00 0.0000000000000000e+00  0.0000000000000000e+00 0.0000000000000000e+00 0.0000000000000000e+00  0.0000000000000000e+00 0.0000000000000000e+00 0.0000000000000000e+00  0.0000000000000000e+00 0.0000000000000000e+00 0.0000000000000000e+00  0.0000000000000000e+00 0.0000000000000000e+00 0.0000000000000000e+00  0.0000000000000000e+00 0.0000000000000000e+00 0.0000000000000000e+00  0.0000000000000000e+00 0.0000000000000000e+00 0.0000000000000000e+00  0.0000000000000000e+00 0.0000000000000000e+00 0.0000000000000000e+00  0.0000000000000000e+00 0.0000000000000000e+00 0.0000000000000000e+00  0.0000000000000000e+00 0.0000000000000000e+00 0.0000000000000000e+00  0.0000000000000000e+00 0.0000000000000000e+00 0.0000000000000000e+00  0.0000000000000000e+00 0.0000000000000000e+00 0.0000000000000000e+00  0.0000000000000000e+00 0.0000000000000000e+00 0.0000000000000000e+00  0.0000000000000000e+00 0.0000000000000000e+00 0.0000000000000000e+00  0.0000000000000000e+00 0.0000000000000000e+00 0.0000000000000000e+00  0.0000000000000000e+00 0.0000000000000000e+00 0.0000000000000000e+00  0.0000000000000000e+00 0.0000000000000000e+00 0.0000000000000000e+00  0.0000000000000000e+00 0.0000000000000000e+00 0.0000000000000000e+00  0.0000000000000000e+00 0.0000000000000000e+00 0.0000000000000000e+00  0.0000000000000000e+00 0.0000000000000000e+00 0.0000000000000000e+00  0.0000000000000000e+00 0.0000000000000000e+00 0.0000000000000000e+00  0.0000000000000000e+00 0.0000000000000000e+00 0.0000000000000000e+00  0.0000000000000000e+00 0.0000000000000000e+00 0.0000000000000000e+00  0.0000000000000000e+00 0.0000000000000000e+00 0.0000000000000000e+00  0.0000000000000000e+00 0.0000000000000000e+00 0.0000000000000000e+00  0.0000000000000000e+00 0.0000000000000000e+00 0.0000000000000000e+00  0.0000000000000000e+00 0.0000000000000000e+00 0.0000000000000000e+00  0.0000000000000000e+00 0.0000000000000000e+00 0.0000000000000000e+00  0.0000000000000000e+00 0.0000000000000000e+00 0.0000000000000000e+00  0.0000000000000000e+00 0.0000000000000000e+00 0.0000000000000000e+00  0.0000000000000000e+00 0.0000000000000000e+00 0.0000000000000000e+00  0.0000000000000000e+00 0.0000000000000000e+00 0.0000000000000000e+00  0.0000000000000000e+00 0.0000000000000000e+00 0.0000000000000000e+00  0.0000000000000000e+00 0.0000000000000000e+00 0.0000000000000000e+00  0.0000000000000000e+00 0.0000000000000000e+00 0.0000000000000000e+00  0.0000000000000000e+00 0.0000000000000000e+00 0.0000000000000000e+00  0.0000000000000000e+00 0.0000000000000000e+00 0.0000000000000000e+00  0.0000000000000000e+00 0.0000000000000000e+00 0.0000000000000000e+00  0.0000000000000000e+00 0.0000000000000000e+00 0.0000000000000000e+00  0.0000000000000000e+00 0.0000000000000000e+00 0.0000000000000000e+00  0.0000000000000000e+00 0.0000000000000000e+00 0.0000000000000000e+00  0.0000000000000000e+00 0.0000000000000000e+00 0.0000000000000000e+00  0.0000000000000000e+00 0.0000000000000000e+00 0.0000000000000000e+00  5.3289929534258696e-08 -4.8649944048811047e-07 0.0000000000000000e+00  4.1312166753319114e-08 -5.0754155670979750e-07 0.0000000000000000e+00  6.7653740899295120e-08 -4.8371469878000625e-07 0.0000000000000000e+00  9.6707896982728328e-08 -4.6091793442711975e-07 0.0000000000000000e+00  1.1930341462860376e-07 -4.4211769057583955e-07 0.0000000000000000e+00  1.3609229841680873e-07 -4.2482821315938704e-07 0.0000000000000000e+00  1.4792707232883727e-07 -4.0837537966238742e-07 0.0000000000000000e+00  1.5538217823681577e-07 -3.9374162158765842e-07 0.0000000000000000e+00  1.5999509523243153e-07 -3.7977059544732732e-07 0.0000000000000000e+00  1.6201021787667007e-07 -3.6738707543081598e-07 0.0000000000000000e+00  1.6231458818582312e-07 -3.5521670272816529e-07 0.0000000000000000e+00  1.6099887389523120e-07 -3.4425260785728290e-07 0.0000000000000000e+00  1.5851652452601194e-07 -3.3351800714099357e-07 0.0000000000000000e+00  1.5516827529080734e-07 -3.2350822450599883e-07 0.0000000000000000e+00  1.5099391206754106e-07 -3.1413507257076817e-07 0.0000000000000000e+00  1.4660237665486125e-07 -3.0520976355802621e-07 0.0000000000000000e+00  1.4178269180042481e-07 -2.9676004486496248e-07 0.0000000000000000e+00  1.3677804935500363e-07 -2.8857684493081879e-07 0.0000000000000000e+00  1.3159204724556879e-07 -2.8099177630851414e-07 0.0000000000000000e+00  1.2638755395057010e-07 -2.7355674508392876e-07 0.0000000000000000e+00  1.2111882181353912e-07 -2.6661051429035743e-07 0.0000000000000000e+00  1.1580756460244054e-07 -2.5982600574490881e-07 0.0000000000000000e+00  1.1057130549977297e-07 -2.5340627515107831e-07 0.0000000000000000e+00  1.0521111030038103e-07 -2.4733320772139458e-07 0.0000000000000000e+00  9.9972427112753721e-08 -2.4152312485466711e-07 0.0000000000000000e+00  9.4648418167999597e-08 -2.3592706539042921e-07 0.0000000000000000e+00  8.9289844845020904e-08 -2.3061853002821220e-07 0.0000000000000000e+00  8.3909491265943829e-08 -2.2555862914906546e-07 0.0000000000000000e+00  7.8373162099882974e-08 -2.2066385417279226e-07 0.0000000000000000e+00  7.2700711100916175e-08 -2.1615368432664953e-07 0.0000000000000000e+00  6.6815408463575644e-08 -2.1165787350730327e-07 0.0000000000000000e+00  6.0544379579383044e-08 -2.0754501760568423e-07 0.0000000000000000e+00  5.3976571514670215e-08 -2.0347508956810041e-07 0.0000000000000000e+00  4.6750769143291838e-08 -1.9953151937765995e-07 0.0000000000000000e+00  3.8704371601475108e-08 -1.9570306506535014e-07 0.0000000000000000e+00  2.9731420085042076e-08 -1.9211137019097209e-07 0.0000000000000000e+00  1.9581417846934644e-08 -1.8844261941939389e-07 0.0000000000000000e+00  7.8860351768886017e-09 -1.8487065820134398e-07 0.0000000000000000e+00  -5.8315059980383538e-09 -1.8093989581030662e-07 0.0000000000000000e+00  -2.2182585604851472e-08 -1.7701375642689345e-07 0.0000000000000000e+00  -4.1664404036036247e-08 -1.7263883874813254e-07 0.0000000000000000e+00  -6.5269945272723804e-08 -1.6766430472880168e-07 0.0000000000000000e+00  -9.4166711409228837e-08 -1.6227534648292308e-07 0.0000000000000000e+00  -1.2945802622487834e-07 -1.5568795353383502e-07 0.0000000000000000e+00  -1.7288381922126709e-07 -1.4788327076044143e-07 0.0000000000000000e+00  -2.2653320714504200e-07 -1.3748500631942246e-07 0.0000000000000000e+00  -2.9224344265029114e-07 -6.6516566813881772e-08 0.0000000000000000e+00  -2.9229997699598862e-07 5.9735400685384115e-08 0.0000000000000000e+00  -2.2664957097612054e-07 1.3080696039380383e-07 0.0000000000000000e+00  -1.7280273209152733e-07 1.4125017426406744e-07 0.0000000000000000e+00  -1.2921026521654893e-07 1.4907579671363135e-07 0.0000000000000000e+00  -9.3897468858874257e-08 1.5553488361673625e-07 0.0000000000000000e+00  -6.5049834749704372e-08 1.6073477296936945e-07 0.0000000000000000e+00  -4.1444730217953871e-08 1.6538349656029100e-07 0.0000000000000000e+00  -2.1966195048008318e-08 1.6958891567729105e-07 0.0000000000000000e+00  -5.6604002961917681e-09 1.7322300137758301e-07 0.0000000000000000e+00  8.0816563324109353e-09 1.7695825911341073e-07 0.0000000000000000e+00  1.9863371472559459e-08 1.8039842420201900e-07 0.0000000000000000e+00  2.9968164305730851e-08 1.8405631573120121e-07 0.0000000000000000e+00  3.8888603606501148e-08 1.8748571386050882e-07 0.0000000000000000e+00  4.6798451434795566e-08 1.9120306061958377e-07 0.0000000000000000e+00  5.4054591307048274e-08 1.9479969086274013e-07 0.0000000000000000e+00  6.0691778117654372e-08 1.9878096902432221e-07 0.0000000000000000e+00  6.6979571497918564e-08 2.0274605837973983e-07 0.0000000000000000e+00  7.2845836052086561e-08 2.0715557758612852e-07 0.0000000000000000e+00  7.8526545859158505e-08 2.1151848780637483e-07 0.0000000000000000e+00  8.3975954030659974e-08 2.1632418829112972e-07 0.0000000000000000e+00  8.9425974103585507e-08 2.2109880898090238e-07 0.0000000000000000e+00  9.4758483787158530e-08 2.2639660038099753e-07 0.0000000000000000e+00  1.0014118630785801e-07 2.3174037697431330e-07 0.0000000000000000e+00  1.0536141448570117e-07 2.3762233943207094e-07 0.0000000000000000e+00  1.1070482025266739e-07 2.4350797026610655e-07 0.0000000000000000e+00  1.1591495752395411e-07 2.4996057667657542e-07 0.0000000000000000e+00  1.2120741166897375e-07 2.5649951870516377e-07 0.0000000000000000e+00  1.2653816003985225e-07 2.6341782289494251e-07 0.0000000000000000e+00  1.3181550027195481e-07 2.7075282947053771e-07 0.0000000000000000e+00  1.3698318118310989e-07 2.7845080158872284e-07 0.0000000000000000e+00  1.4192009414455042e-07 2.8653194717658295e-07 0.0000000000000000e+00  1.4667809700617973e-07 2.9494009309971371e-07 0.0000000000000000e+00  1.5110079574971836e-07 3.0374544466793931e-07 0.0000000000000000e+00  1.5528831234951634e-07 3.1303948502000129e-07 0.0000000000000000e+00  1.5863831596152152e-07 3.2298647948244651e-07 0.0000000000000000e+00  1.6111780850729430e-07 3.3359497910672120e-07 0.0000000000000000e+00  1.6245386877047425e-07 3.4445769584975526e-07 0.0000000000000000e+00  1.6227728235125255e-07 3.5638503635426827e-07 0.0000000000000000e+00  1.6032955908463569e-07 3.6858513964232815e-07 0.0000000000000000e+00  1.5587557467175711e-07 3.8210755702260218e-07 0.0000000000000000e+00  1.4847084564355692e-07 3.9616428826495949e-07 0.0000000000000000e+00  1.3659004981116346e-07 4.1185115833638732e-07 0.0000000000000000e+00  1.1948001416120933e-07 4.2828864331098373e-07 0.0000000000000000e+00  9.6143136112259864e-08 4.4649054291061461e-07 0.0000000000000000e+00  6.5951389706307728e-08 4.6958415971407429e-07 0.0000000000000000e+00  3.8387595584153664e-08 4.9521035617176454e-07 0.0000000000000000e+00  4.9724600970118589e-08 4.7788802762000704e-07 0.0000000000000000e+00  -1.0761871168446442e-08 -9.0948626308881208e-09 0.0000000000000000e+00  -1.9573021046471368e-07 -4.9443985776814238e-09 0.0000000000000000e+00  -1.1175528475733884e-07 -6.3900286783292457e-09 0.0000000000000000e+00  -2.9173333238601187e-08 -5.4835447830599260e-09 0.0000000000000000e+00  9.0514808449916643e-08 -7.1907406116146503e-09 0.0000000000000000e+00  2.8537371634020039e-09 -3.7977628481345514e-09 0.0000000000000000e+00  1.3492982222271145e-07 -1.1446725621729131e-09 0.0000000000000000e+00  2.6490491095349081e-08 -3.9275209475474227e-09 0.0000000000000000e+00  1.6459227505992836e-07 -4.6947696645689164e-10 0.0000000000000000e+00  1.6799180221706602e-07 -5.2983380803465707e-09 0.0000000000000000e+00  4.4553623845948969e-08 -4.0526453888598105e-09 0.0000000000000000e+00  1.5301337230183158e-07 -9.9607445524132555e-10 0.0000000000000000e+00  7.1920150361178236e-08 -4.3622016257345337e-09 0.0000000000000000e+00  1.6506266600578868e-07 -8.5540440538104203e-10 0.0000000000000000e+00  1.4330251472376314e-07 -4.9916260072352479e-09 0.0000000000000000e+00  8.3511658213788433e-08 -4.4870158320757844e-09 0.0000000000000000e+00  5.9228305499518021e-08 -4.2317471704271275e-09 0.0000000000000000e+00  1.3267421529214005e-07 -4.9696625225880699e-09 0.0000000000000000e+00  9.4588690422795716e-08 -4.6373410136833110e-09 0.0000000000000000e+00  1.2223283525385449e-07 -1.5308994206776386e-09 0.0000000000000000e+00  1.0525806072335390e-07 -7.7786440885541815e-09 0.0000000000000000e+00  1.1411873358714020e-07 -4.7275100194709725e-09 0.0000000000000000e+00  1.6015028984521090e-07 -5.6951188760480686e-09 0.0000000000000000e+00  -6.5816264646765351e-08 -3.0867847095734664e-09 0.0000000000000000e+00  1.5410706235773262e-07 -5.8793140801985312e-09 0.0000000000000000e+00  -1.4928238236382499e-07 4.6090440060466631e-08 0.0000000000000000e+00  5.1678332427263504e-08 1.7088308154504766e-07 0.0000000000000000e+00  1.5469434711899495e-08 4.8838418939814995e-08 0.0000000000000000e+00  -1.2174360736891668e-08 4.6874238289546311e-08 0.0000000000000000e+00  1.1618615372987353e-07 -1.6364679460458682e-07 0.0000000000000000e+00  1.6677900103457029e-07 -1.1161052442532416e-07 0.0000000000000000e+00  6.5629325357476398e-08 5.4894680793020508e-08 0.0000000000000000e+00  3.5961706041375780e-08 5.0795364216985075e-08 0.0000000000000000e+00  1.4806244257842083e-07 -9.0406713361695696e-08 0.0000000000000000e+00  7.7667531968777334e-08 5.7278804826839672e-08 0.0000000000000000e+00  1.6665163085166096e-07 -1.0460221218098161e-07 0.0000000000000000e+00  1.3773757143608802e-07 -8.5693993461790611e-08 0.0000000000000000e+00  8.8920782479032782e-08 5.9888055508672680e-08 0.0000000000000000e+00  5.2094087980163929e-08 5.2767958093278477e-08 0.0000000000000000e+00  1.2689312169412745e-07 -9.8298777774750475e-08 0.0000000000000000e+00  9.9869413936939455e-08 6.2788291272233308e-08 0.0000000000000000e+00  -5.4453841100667654e-08 -1.4892930594565084e-07 0.0000000000000000e+00  -5.5861170638658383e-08 1.3611981953263791e-07 0.0000000000000000e+00  -2.4231255144979164e-07 -3.5000472187348912e-08 0.0000000000000000e+00  5.2911190951484971e-08 -2.0527177648103347e-07 0.0000000000000000e+00  1.0937233934584569e-07 8.21846254