<?xml version="1.0"?>
<VTKFile type="UnstructuredGrid"  version="0.1"  >
<UnstructuredGrid>
<Piece  NumberOfPoints="1419" NumberOfCells="2698">
<Points>
<DataArray  type="Float64"  NumberOfComponents="3"  format="ascii">0 0 0  0 0.41 0  2.5 0 0  2.5 0.41 0  0.5999999621296385 0.1900000050882416 0  0.5999999621801111 0.2099999945138138 0  0.25 0.2 0  0.15 0.2 0  0.2489897948556636 0.21 0  0.2489897948556636 0.19 0  0.5999999620939754 0.1999999998025164 0  0 0.3807142857143437 0  0 0.3514285714286952 0  0 0.3221428571430699 0  0 0.29285714285744 0  0 0.2635714285718054 0  0 0.2342857142861561 0  0 0.2050000000005308 0  0 0.175714285714732 0  0 0.1464285714289574 0  0 0.1171428571431897 0  0 0.08785714285737878 0  0 0.05857142857161107 0  0 0.02928571428580012 0  0.03015443760436003 0 0  0.06140001986583606 0 0  0.09377624077125973 0 0  0.1273239957535082 0 0  0.1620856860351972 0 0  0.1981052433264291 0 0  0.235428184091502 0 0  0.2741016576309132 0 0  0.3141745521465447 0 0  0.3556974926295285 0 0  0.3987229542472677 0 0  0.4433053055141081 0 0  0.4895008759286886 0 0  0.5373680609405097 0 0  0.5869673343216626 0 0  0.6383613676634521 0 0  0.6916151138468254 0 0  0.7467958595648856 0 0  0.8039733463919316 0 0  0.8632198139502143 0 0  0.9246101326867038 0 0  0.9882218810934433 0 0  1.054135445558498 0 0  1.122434100542598 0 0  1.193204177141305 0 0  1.266535089879536 0 0  1.342519516046404 0 0  1.421253448503939 0 0  1.502836389106271 0 0  1.587371439758838 0 0  1.674965418777374 0 0  1.765729001825544 0 0  1.859776908880082 0 0  1.957227977487062 0 0  2.058205329869943 0 0  2.162836591189951 0 0  2.271253957290865 0 0  2.383594446803425 0 0  2.5 0.1024999999997612 0  2.5 0.2049999999994743 0  2.5 0.3074999999997183 0  2.383594446803656 0.41 0  2.271253957291315 0.41 0  2.162836591190598 0.41 0  2.058205329870775 0.41 0  1.957227977488067 0.41 0  1.859776908881246 0.41 0  1.765729001826854 0.41 0  1.674965418778818 0.41 0  1.58737143976041 0.41 0  1.502836389107956 0.41 0  1.421253448505726 0.41 0  1.342519516048286 0.41 0  1.266535089881505 0.41 0  1.193204177143353 0.41 0  1.122434100544716 0.41 0  1.05413544556068 0.41 0  0.9882218810956305 0.41 0  0.9246101326886647 0.41 0  0.8632198139519631 0.41 0  0.8039733463934788 0.41 0  0.7467958595662458 0.41 0  0.6916151138480078 0.41 0  0.6383613676644679 0.41 0  0.5869673343225223 0.41 0  0.5373680609412221 0.41 0  0.4895008759292634 0.41 0  0.4433053055145528 0.41 0  0.3987229542475914 0.41 0  0.3556974926297398 0.41 0  0.3141745521466497 0.41 0  0.2741016576310038 0.41 0  0.2354281840915826 0.41 0  0.1981052433265003 0.41 0  0.1620856860352591 0.41 0  0.1273239957535623 0.41 0  0.09377624077128965 0.41 0  0.06140001986584975 0.41 0  0.03015443760436654 0.41 0  0.2497468076502589 0.2050254481002335 0  0.2497468076502614 0.1949745518997913 0  0.2469965252529372 0.1829317073451959 0  0.2439893735792749 0.1762316384219906 0  0.2400332147834255 0.1700443375285386 0  0.2352133972704371 0.1645032867342007 0  0.2296339016332438 0.1597280261969788 0  0.2234150974217223 0.1558215752574715 0  0.2166911463437691 0.1528682099456123 0  0.2096071079204251 0.1509316448471593 0  0.2023158100364996 0.1500536585536553 0  0.194974551899914 0.1502531923497262 0  0.1877417105387872 0.1515259415822739 0  0.1807733240461124 0.153844448527136 0  0.1742197252835808 0.15715869474974 0  0.1682222986673531 0.1613971801805478 0  0.162910430003803 0.1664684656256651 0  0.1583987151779087 0.1722631454351573 0  0.1547844879126891 0.178656207771761 0  0.1521457199348551 0.1855097315605723 0  0.1505393388476355 0.1926758619366523 0  0.1505393388476328 0.2073241380633295 0  0.1521457199348437 0.2144902684393899 0  0.1547844879126531 0.221343792228163 0  0.1583987151778488 0.2277368545647528 0  0.1629104300036858 0.2335315343742052 0  0.1682222986671726 0.2386028198193036 0  0.1742197252833576 0.2428413052501257 0  0.1807733240458683 0.2461555514727623 0  0.1877417105384929 0.2484740584176516 0  0.1949745518995776 0.2497468076502398 0  0.202315810036185 0.2499463414463592 0  0.2096071079201568 0.2490683551528932 0  0.2166911463435495 0.2471317900544655 0  0.2234150974215506 0.2441784247426195 0  0.2296339016331197 0.2402719738031125 0  0.2352133972703547 0.2354967132658811 0  0.2400332147833751 0.2299556624715287 0  0.2439893735792577 0.2237683615780412 0  0.246996525252926 0.2170682926548348 0  0.2564580978112087 0.20999998939622 0  0.2639263994397478 0.2099999890276175 0  0.2713947021325458 0.2099999891388847 0  0.2788630049665532 0.2099999892434787 0  0.2863313078045877 0.2099999892969488 0  0.293799610581471 0.2099999893597329 0  0.3012679133114339 0.209999989434316 0  0.3087362159837546 0.2099999895204774 0  0.3162045186097235 0.209999989616843 0  0.3236728211836308 0.2099999897078191 0  0.3311411237053293 0.2099999898166392 0  0.3386094261739451 0.2099999899121532 0  0.3460777285854726 0.2099999900177993 0  0.3535460309445005 0.2099999901187025 0  0.3610143332386449 0.209999990219702 0  0.3684826354788986 0.209999990320657 0  0.3759509376573016 0.2099999904117342 0  0.3834192397737575 0.2099999905166793 0  0.3908875418275996 0.2099999906064169 0  0.3983558438162262 0.2099999907122849 0  0.4058241457403023 0.2099999908068254 0  0.4132924475940271 0.2099999909124555 0  0.4207607493836815 0.2099999910159317 0  0.4282290510924771 0.2099999911246648 0  0.4356973527320767 0.2099999912354899 0  0.4431656542923546 0.2099999913441143 0  0.4506339557723672 0.2099999914639334 0  0.4581022571704826 0.2099999915777241 0  0.4655705584794985 0.2099999917060438 0  0.4730388597000282 0.2099999918243593 0  0.4805071608253235 0.2099999919608614 0  0.4879754618513429 0.2099999920863082 0  0.4954437627786128 0.2099999922306792 0  0.5029120635963178 0.2099999923692362 0  0.5103803642989493 0.2099999925227505 0  0.5178486648877582 0.2099999926640881 0  0.5253169653557719 0.209999992825241 0  0.5327852656990841 0.2099999929761608 0  0.5402535659087319 0.2099999931514782 0  0.5477218659807056 0.2099999933134341 0  0.5551901659100658 0.2099999934917576 0  0.5626584656964146 0.2099999936751946 0  0.5701267653142877 0.2099999938571188 0  0.5775950647756426 0.2099999940498199 0  0.5850633640691312 0.2099999942406361 0  0.5925316632139513 0.2099999944710743 0  0.5999999620818061 0.2049999971262587 0  0.5999999620632932 0.1950000024799471 0  0.5925316631717282 0.1900000051677594 0  0.5850633640369528 0.1900000054280493 0  0.5775950647533182 0.190000005639416 0  0.5701267652988731 0.1900000058506034 0  0.5626584656874731 0.1900000060411121 0  0.555190165907998 0.1900000062249015 0  0.5477218659838266 0.1900000064039553 0  0.5402535659134997 0.1900000065551329 0  0.5327852657066036 0.1900000067286668 0  0.5253169653667676 0.1900000068699145 0  0.5178486648989651 0.1900000070345181 0  0.5103803643086643 0.190000007166167 0  0.5029120636022885 0.1900000073180155 0  0.4954437627846561 0.1900000074395967 0  0.487975461860289 0.1900000075822696 0  0.4805071608335583 0.1900000076985532 0  0.4730388597074987 0.1900000078355855 0  0.4655705584861632 0.1900000079463778 0  0.458102257174519 0.1900000080749006 0  0.4506339557767877 0.1900000081790415 0  0.4431656542961238 0.1900000083017045 0  0.4356973527355706 0.190000008404077 0  0.4282290510952749 0.1900000085184835 0  0.4207607493847725 0.1900000086262286 0  0.4132924475944668 0.1900000087321012 0  0.4058241457392718 0.1900000088359681 0  0.3983558438162506 0.190000008933746 0  0.390887541828409 0.1900000090397825 0  0.38341923977603 0.1900000091360971 0  0.3759509376607283 0.1900000092390053 0  0.3684826354851456 0.1900000093306722 0  0.3610143332495121 0.1900000094246601 0  0.353546030959762 0.190000009516426 0  0.3460777286043814 0.1900000096038333 0  0.3386094261940711 0.1900000096909244 0  0.3311411237250987 0.1900000097690302 0  0.3236728211990488 0.1900000098560952 0  0.3162045186170289 0.1900000099341269 0  0.3087362159783049 0.190000010022347 0  0.3012679132876265 0.1900000101127266 0  0.293799610538254 0.1900000102106191 0  0.2863313077404445 0.1900000103141541 0  0.2788630048848776 0.1900000104280684 0  0.271394702043782 0.1900000106157342 0  0.2639263993586509 0.1900000108177942 0  0.2564580977220777 0.1900000105004642 0  0.2607803149251657 0.200072713492977 0  0.5887803444403775 0.2001272384597894 0  0.5745072130616004 0.2002044432321953 0  0.5511891236370916 0.2001122607959831 0  0.2751288534992671 0.1999999998558691 0  0.5365194158646996 0.1999999998537551 0  0.2894621242907377 0.1998691685678573 0  0.5215828151826525 0.1999999998485732 0  0.31277898514019 0.1998657884514926 0  0.327406972486608 0.1999999997863524 0  0.5066462140042829 0.1999999998433759 0  0.3650630795251654 0.1998660177611658 0  0.4767730103145555 0.1999999998296231 0  0.3417402425481083 0.1998691685731439 0  0.3796850887542509 0.1999999998266117 0  0.4618364078741216 0.1999999998257825 0  0.4917096123692342 0.1999999998350971 0  0.394621692860843 0.1999999998232115 0  0.4468998050790665 0.1999999998219636 0  0.4089549618763703 0.1998691685778734 0  0.4322718197257912 0.200127450975649 0  0.4201487199453124 0.199996619729021 0  0.3528922761155644 0.2000185701530149 0  0.5633122203563729 0.1999814295172731 0  0.3006558837749485 0.1999966196789308 0  0.5815926197707713 0.1966545300577134 0  0.2677053790045463 0.1964246517799718 0  0.5290511155856956 0.1970915845582449 0  0.5439877160018101 0.1970915844692109 0  0.2825131271673236 0.20354789566968 0  0.319938669931589 0.2029084141482332 0  0.484241311389775 0.19709158478938 0  0.5141145146504347 0.1970915846424245 0  0.3722167866040804 0.2029084143890573 0  0.4693047091382693 0.1970915848590449 0  0.3348752749782456 0.2029084142224507 0  0.3871533908366128 0.2029084144451946 0  0.4543681065165143 0.1970915849249269 0  0.4991779132387771 0.1970915847184465 0  0.4020059655939623 0.2035478962049751 0  0.4394315035547122 0.1970915849890263 0  0.2550657436942068 0.2034088095423364 0  0.254890848065604 0.1966940339842303 0  0.5946539154908023 0.2024302958
[...]
<PointData  Vectors="f_44-0"> 
<DataArray  type="Float64"  Name="f_44-0"  NumberOfComponents="3" format="ascii">0.0000000000000000e+00 0.0000000000000000e+00 0.0000000000000000e+00  0.0000000000000000e+00 0.0000000000000000e+00 0.0000000000000000e+00  0.0000000000000000e+00 0.0000000000000000e+00 0.0000000000000000e+00  0.0000000000000000e+00 0.0000000000000000e+00 0.0000000000000000e+00  -1.3018223857978090e-05 1.3555703210260022e-06 0.0000000000000000e+00  -1.2994624704435925e-05 -1.4859762254886646e-06 0.0000000000000000e+00  0.0000000000000000e+00 0.0000000000000000e+00 0.0000000000000000e+00  0.0000000000000000e+00 0.0000000000000000e+00 0.0000000000000000e+00  0.0000000000000000e+00 0.0000000000000000e+00 0.0000000000000000e+00  0.0000000000000000e+00 0.0000000000000000e+00 0.0000000000000000e+00  -1.3062012681951954e-05 -5.9342656264828537e-08 0.0000000000000000e+00  3.1421184195571575e-06 0.0000000000000000e+00 0.0000000000000000e+00  5.8008340053366753e-06 0.0000000000000000e+00 0.0000000000000000e+00  7.9761467573379304e-06 0.0000000000000000e+00 0.0000000000000000e+00  9.6680566755634407e-06 0.0000000000000000e+00 0.0000000000000000e+00  1.0876563760012984e-05 0.0000000000000000e+00 0.0000000000000000e+00  1.1601668010686495e-05 0.0000000000000000e+00 0.0000000000000000e+00  1.1843369427583241e-05 0.0000000000000000e+00 0.0000000000000000e+00  1.1601668010701154e-05 0.0000000000000000e+00 0.0000000000000000e+00  1.0876563760038168e-05 0.0000000000000000e+00 0.0000000000000000e+00  9.6680566755946268e-06 0.0000000000000000e+00 0.0000000000000000e+00  7.9761467573675562e-06 0.0000000000000000e+00 0.0000000000000000e+00  5.8008340053619575e-06 0.0000000000000000e+00 0.0000000000000000e+00  3.1421184195714016e-06 0.0000000000000000e+00 0.0000000000000000e+00  0.0000000000000000e+00 0.0000000000000000e+00 0.0000000000000000e+00  0.0000000000000000e+00 0.0000000000000000e+00 0.0000000000000000e+00  0.0000000000000000e+00 0.0000000000000000e+00 0.0000000000000000e+00  0.0000000000000000e+00 0.0000000000000000e+00 0.0000000000000000e+00  0.0000000000000000e+00 0.0000000000000000e+00 0.0000000000000000e+00  0.0000000000000000e+00 0.0000000000000000e+00 0.0000000000000000e+00  0.0000000000000000e+00 0.0000000000000000e+00 0.0000000000000000e+00  0.0000000000000000e+00 0.0000000000000000e+00 0.0000000000000000e+00  0.0000000000000000e+00 0.0000000000000000e+00 0.0000000000000000e+00  0.0000000000000000e+00 0.0000000000000000e+00 0.0000000000000000e+00  0.0000000000000000e+00 0.0000000000000000e+00 0.0000000000000000e+00  0.0000000000000000e+00 0.0000000000000000e+00 0.0000000000000000e+00  0.0000000000000000e+00 0.0000000000000000e+00 0.0000000000000000e+00  0.0000000000000000e+00 0.0000000000000000e+00 0.0000000000000000e+00  0.0000000000000000e+00 0.0000000000000000e+00 0.0000000000000000e+00  0.0000000000000000e+00 0.0000000000000000e+00 0.0000000000000000e+00  0.0000000000000000e+00 0.0000000000000000e+00 0.0000000000000000e+00  0.0000000000000000e+00 0.0000000000000000e+00 0.0000000000000000e+00  0.0000000000000000e+00 0.0000000000000000e+00 0.0000000000000000e+00  0.0000000000000000e+00 0.0000000000000000e+00 0.0000000000000000e+00  0.0000000000000000e+00 0.0000000000000000e+00 0.0000000000000000e+00  0.0000000000000000e+00 0.0000000000000000e+00 0.0000000000000000e+00  0.0000000000000000e+00 0.0000000000000000e+00 0.0000000000000000e+00  0.0000000000000000e+00 0.0000000000000000e+00 0.0000000000000000e+00  0.0000000000000000e+00 0.0000000000000000e+00 0.0000000000000000e+00  0.0000000000000000e+00 0.0000000000000000e+00 0.0000000000000000e+00  0.0000000000000000e+00 0.0000000000000000e+00 0.0000000000000000e+00  0.0000000000000000e+00 0.0000000000000000e+00 0.0000000000000000e+00  0.0000000000000000e+00 0.0000000000000000e+00 0.0000000000000000e+00  0.0000000000000000e+00 0.0000000000000000e+00 0.0000000000000000e+00  0.0000000000000000e+00 0.0000000000000000e+00 0.0000000000000000e+00  0.0000000000000000e+00 0.0000000000000000e+00 0.0000000000000000e+00  0.0000000000000000e+00 0.0000000000000000e+00 0.0000000000000000e+00  0.0000000000000000e+00 0.0000000000000000e+00 0.0000000000000000e+00  0.0000000000000000e+00 0.0000000000000000e+00 0.0000000000000000e+00  0.0000000000000000e+00 0.0000000000000000e+00 0.0000000000000000e+00  0.0000000000000000e+00 0.0000000000000000e+00 0.0000000000000000e+00  0.0000000000000000e+00 0.0000000000000000e+00 0.0000000000000000e+00  3.5914475371450065e-06 -6.7059623947320227e-09 0.0000000000000000e+00  3.7164700120403306e-06 5.4815803681532579e-09 0.0000000000000000e+00  3.5956767323685186e-06 1.4174352842396517e-08 0.0000000000000000e+00  0.0000000000000000e+00 0.0000000000000000e+00 0.0000000000000000e+00  0.0000000000000000e+00 0.0000000000000000e+00 0.0000000000000000e+00  0.0000000000000000e+00 0.0000000000000000e+00 0.0000000000000000e+00  0.0000000000000000e+00 0.0000000000000000e+00 0.0000000000000000e+00  0.0000000000000000e+00 0.0000000000000000e+00 0.0000000000000000e+00  0.0000000000000000e+00 0.0000000000000000e+00 0.0000000000000000e+00  0.0000000000000000e+00 0.0000000000000000e+00 0.0000000000000000e+00  0.0000000000000000e+00 0.0000000000000000e+00 0.0000000000000000e+00  0.0000000000000000e+00 0.0000000000000000e+00 0.0000000000000000e+00  0.0000000000000000e+00 0.0000000000000000e+00 0.0000000000000000e+00  0.0000000000000000e+00 0.0000000000000000e+00 0.0000000000000000e+00  0.0000000000000000e+00 0.0000000000000000e+00 0.0000000000000000e+00  0.0000000000000000e+00 0.0000000000000000e+00 0.0000000000000000e+00  0.0000000000000000e+00 0.0000000000000000e+00 0.0000000000000000e+00  0.0000000000000000e+00 0.0000000000000000e+00 0.0000000000000000e+00  0.0000000000000000e+00 0.0000000000000000e+00 0.0000000000000000e+00  0.0000000000000000e+00 0.0000000000000000e+00 0.0000000000000000e+00  0.0000000000000000e+00 0.0000000000000000e+00 0.0000000000000000e+00  0.0000000000000000e+00 0.0000000000000000e+00 0.0000000000000000e+00  0.0000000000000000e+00 0.0000000000000000e+00 0.0000000000000000e+00  0.0000000000000000e+00 0.0000000000000000e+00 0.0000000000000000e+00  0.0000000000000000e+00 0.0000000000000000e+00 0.0000000000000000e+00  0.0000000000000000e+00 0.0000000000000000e+00 0.0000000000000000e+00  0.0000000000000000e+00 0.0000000000000000e+00 0.0000000000000000e+00  0.0000000000000000e+00 0.0000000000000000e+00 0.0000000000000000e+00  0.0000000000000000e+00 0.0000000000000000e+00 0.0000000000000000e+00  0.0000000000000000e+00 0.0000000000000000e+00 0.0000000000000000e+00  0.0000000000000000e+00 0.0000000000000000e+00 0.0000000000000000e+00  0.0000000000000000e+00 0.0000000000000000e+00 0.0000000000000000e+00  0.0000000000000000e+00 0.0000000000000000e+00 0.0000000000000000e+00  0.0000000000000000e+00 0.0000000000000000e+00 0.0000000000000000e+00  0.0000000000000000e+00 0.0000000000000000e+00 0.0000000000000000e+00  0.0000000000000000e+00 0.0000000000000000e+00 0.0000000000000000e+00  0.0000000000000000e+00 0.0000000000000000e+00 0.0000000000000000e+00  0.0000000000000000e+00 0.0000000000000000e+00 0.0000000000000000e+00  0.0000000000000000e+00 0.0000000000000000e+00 0.0000000000000000e+00  0.0000000000000000e+00 0.0000000000000000e+00 0.0000000000000000e+00  0.0000000000000000e+00 0.0000000000000000e+00 0.0000000000000000e+00  0.0000000000000000e+00 0.0000000000000000e+00 0.0000000000000000e+00  0.0000000000000000e+00 0.0000000000000000e+00 0.0000000000000000e+00  0.0000000000000000e+00 0.0000000000000000e+00 0.0000000000000000e+00  0.0000000000000000e+00 0.0000000000000000e+00 0.0000000000000000e+00  0.0000000000000000e+00 0.0000000000000000e+00 0.0000000000000000e+00  0.0000000000000000e+00 0.0000000000000000e+00 0.0000000000000000e+00  0.0000000000000000e+00 0.0000000000000000e+00 0.0000000000000000e+00  0.0000000000000000e+00 0.0000000000000000e+00 0.0000000000000000e+00  0.0000000000000000e+00 0.0000000000000000e+00 0.0000000000000000e+00  0.0000000000000000e+00 0.0000000000000000e+00 0.0000000000000000e+00  0.0000000000000000e+00 0.0000000000000000e+00 0.0000000000000000e+00  0.0000000000000000e+00 0.0000000000000000e+00 0.0000000000000000e+00  0.0000000000000000e+00 0.0000000000000000e+00 0.0000000000000000e+00  0.0000000000000000e+00 0.0000000000000000e+00 0.0000000000000000e+00  0.0000000000000000e+00 0.0000000000000000e+00 0.0000000000000000e+00  0.0000000000000000e+00 0.0000000000000000e+00 0.0000000000000000e+00  0.0000000000000000e+00 0.0000000000000000e+00 0.0000000000000000e+00  0.0000000000000000e+00 0.0000000000000000e+00 0.0000000000000000e+00  0.0000000000000000e+00 0.0000000000000000e+00 0.0000000000000000e+00  0.0000000000000000e+00 0.0000000000000000e+00 0.0000000000000000e+00  0.0000000000000000e+00 0.0000000000000000e+00 0.0000000000000000e+00  0.0000000000000000e+00 0.0000000000000000e+00 0.0000000000000000e+00  0.0000000000000000e+00 0.0000000000000000e+00 0.0000000000000000e+00  0.0000000000000000e+00 0.0000000000000000e+00 0.0000000000000000e+00  0.0000000000000000e+00 0.0000000000000000e+00 0.0000000000000000e+00  0.0000000000000000e+00 0.0000000000000000e+00 0.0000000000000000e+00  0.0000000000000000e+00 0.0000000000000000e+00 0.0000000000000000e+00  0.0000000000000000e+00 0.0000000000000000e+00 0.0000000000000000e+00  0.0000000000000000e+00 0.0000000000000000e+00 0.0000000000000000e+00  0.0000000000000000e+00 0.0000000000000000e+00 0.0000000000000000e+00  0.0000000000000000e+00 0.0000000000000000e+00 0.0000000000000000e+00  0.0000000000000000e+00 0.0000000000000000e+00 0.0000000000000000e+00  0.0000000000000000e+00 0.0000000000000000e+00 0.0000000000000000e+00  0.0000000000000000e+00 0.0000000000000000e+00 0.0000000000000000e+00  0.0000000000000000e+00 0.0000000000000000e+00 0.0000000000000000e+00  0.0000000000000000e+00 0.0000000000000000e+00 0.0000000000000000e+00  0.0000000000000000e+00 0.0000000000000000e+00 0.0000000000000000e+00  0.0000000000000000e+00 0.0000000000000000e+00 0.0000000000000000e+00  0.0000000000000000e+00 0.0000000000000000e+00 0.0000000000000000e+00  0.0000000000000000e+00 0.0000000000000000e+00 0.0000000000000000e+00  7.8370916170912118e-08 -1.8409127493987245e-06 0.0000000000000000e+00  -3.4695006101454062e-08 -2.6507114497582442e-06 0.0000000000000000e+00  -1.2988421199385063e-08 -2.6864005436171776e-06 0.0000000000000000e+00  1.2823562120268563e-07 -2.6848625974240133e-06 0.0000000000000000e+00  2.3628156424137083e-07 -2.6748919771121950e-06 0.0000000000000000e+00  3.4214915669080549e-07 -2.6695721638173044e-06 0.0000000000000000e+00  4.3210454051932380e-07 -2.6601285813474550e-06 0.0000000000000000e+00  5.1697072820959449e-07 -2.6487273166792193e-06 0.0000000000000000e+00  5.8631812325373485e-07 -2.6346863054630633e-06 0.0000000000000000e+00  6.4440178838976851e-07 -2.6109274104380863e-06 0.0000000000000000e+00  6.8970582359698426e-07 -2.5950643006926621e-06 0.0000000000000000e+00  7.2086805167681765e-07 -2.5672036479222858e-06 0.0000000000000000e+00  7.3845944520945818e-07 -2.5444032639675922e-06 0.0000000000000000e+00  7.3653043873108901e-07 -2.5204186572841049e-06 0.0000000000000000e+00  7.2386497046870415e-07 -2.4958585381611724e-06 0.0000000000000000e+00  6.8998540708809467e-07 -2.4736403876673298e-06 0.0000000000000000e+00  6.3868600938223610e-07 -2.4426237857362130e-06 0.0000000000000000e+00  5.6748945354880983e-07 -2.4231404013068263e-06 0.0000000000000000e+00  4.7602939417276961e-07 -2.3913322915873028e-06 0.0000000000000000e+00  3.6396721001254587e-07 -2.3699922079351328e-06 0.0000000000000000e+00  2.2910263984283688e-07 -2.3379947084900003e-06 0.0000000000000000e+00  7.2417218013763600e-08 -2.3106414827929811e-06 0.0000000000000000e+00  -1.1178827186515438e-07 -2.2820728860346240e-06 0.0000000000000000e+00  -3.1357449485746746e-07 -2.2519052466554923e-06 0.0000000000000000e+00  -5.4433953380672124e-07 -2.2227453025966929e-06 0.0000000000000000e+00  -8.0032660337640030e-07 -2.1860214961621538e-06 0.0000000000000000e+00  -1.0834554670250165e-06 -2.1576173557726464e-06 0.0000000000000000e+00  -1.3935361636959812e-06 -2.1190480652186736e-06 0.0000000000000000e+00  -1.7318926784151895e-06 -2.0881913980785082e-06 0.0000000000000000e+00  -2.0986171048340114e-06 -2.0489420142066389e-06 0.0000000000000000e+00  -2.4944666426862004e-06 -2.0163332538126814e-06 0.0000000000000000e+00  -2.9203565534289217e-06 -1.9753754701003174e-06 0.0000000000000000e+00  -3.3754379078386019e-06 -1.9426568237174189e-06 0.0000000000000000e+00  -3.8618090925325741e-06 -1.8983498603390255e-06 0.0000000000000000e+00  -4.3796080629915776e-06 -1.8650668849521303e-06 0.0000000000000000e+00  -4.9282680887007455e-06 -1.8213849807674326e-06 0.0000000000000000e+00  -5.5078004678431155e-06 -1.7879097916702325e-06 0.0000000000000000e+00  -6.1189446592154601e-06 -1.7436474497980499e-06 0.0000000000000000e+00  -6.7615121635240810e-06 -1.7096928759086364e-06 0.0000000000000000e+00  -7.4371075178315674e-06 -1.6654847336439866e-06 0.0000000000000000e+00  -8.1425091528677579e-06 -1.6288037788362986e-06 0.0000000000000000e+00  -8.8868803749890564e-06 -1.5930651221443077e-06 0.0000000000000000e+00  -9.6521628988384427e-06 -1.5552706927463463e-06 0.0000000000000000e+00  -1.0454871063185349e-05 -1.5196488232969596e-06 0.0000000000000000e+00  -1.1288428262268135e-05 -1.4745052218502902e-06 0.0000000000000000e+00  -1.2152093214753309e-05 -1.4587970596563149e-06 0.0000000000000000e+00  -1.3037683421284514e-05 -7.5693652660167116e-07 0.0000000000000000e+00  -1.3044387630579760e-05 6.3128164472957055e-07 0.0000000000000000e+00  -1.2161052105588842e-05 1.3489645613253949e-06 0.0000000000000000e+00  -1.1300275337145656e-05 1.3722520045102721e-06 0.0000000000000000e+00  -1.0465162045952688e-05 1.4288920411449132e-06 0.0000000000000000e+00  -9.6587540937874984e-06 1.4686388163628685e-06 0.0000000000000000e+00  -8.8913382242428567e-06 1.5113717064414070e-06 0.0000000000000000e+00  -8.1455570047317186e-06 1.5490936472538647e-06 0.0000000000000000e+00  -7.4387581166295843e-06 1.5857403302387552e-06 0.0000000000000000e+00  -6.7621031132865231e-06 1.6330508561290596e-06 0.0000000000000000e+00  -6.1184028301949701e-06 1.6619181756132503e-06 0.0000000000000000e+00  -5.5061491106442822e-06 1.7090045842825627e-06 0.0000000000000000e+00  -4.9261628063007724e-06 1.7377985950322764e-06 0.0000000000000000e+00  -4.3776961145064839e-06 1.7831991936129114e-06 0.0000000000000000e+00  -3.8605471140809960e-06 1.8112889606284374e-06 0.0000000000000000e+00  -3.3741849580345772e-06 1.8549608089770937e-06 0.0000000000000000e+00  -2.9185991419308346e-06 1.8828566484792782e-06 0.0000000000000000e+00  -2.4928789491262999e-06 1.9254534461619967e-06 0.0000000000000000e+00  -2.0973099996809274e-06 1.9535840420398365e-06 0.0000000000000000e+00  -1.7309742131498446e-06 1.9949070346629825e-06 0.0000000000000000e+00  -1.3933316182666972e-06 2.0219523286614778e-06 0.0000000000000000e+00  -1.0833685368849600e-06 2.0613958732462613e-06 0.0000000000000000e+00  -8.0070172753849795e-07 2.0878905437677507e-06 0.0000000000000000e+00  -5.4476075857496693e-07 2.1255380737344184e-06 0.0000000000000000e+00  -3.1393545867293179e-07 2.1551266590623816e-06 0.0000000000000000e+00  -1.1224719857877349e-07 2.1848354156513820e-06 0.0000000000000000e+00  7.1419530030656348e-08 2.2149472947657339e-06 0.0000000000000000e+00  2.2839819003035325e-07 2.2428358324526259e-06 0.0000000000000000e+00  3.6344316810530619e-07 2.2752372216722126e-06 0.0000000000000000e+00  4.7658299699864286e-07 2.2988257238445894e-06 0.0000000000000000e+00  5.6880628706163319e-07 2.3295648170318530e-06 0.0000000000000000e+00  6.4084307316654843e-07 2.3509042327760718e-06 0.0000000000000000e+00  6.9353163563175825e-07 2.3782157412708551e-06 0.0000000000000000e+00  7.2844251027673808e-07 2.3985672962083914e-06 0.0000000000000000e+00  7.4219519171691067e-07 2.4186522729730684e-06 0.0000000000000000e+00  7.4479954891696251e-07 2.4372607729025949e-06 0.0000000000000000e+00  7.2768343522081914e-07 2.4549209055978184e-06 0.0000000000000000e+00  6.9503034793438035e-07 2.4753163133799227e-06 0.0000000000000000e+00  6.4735607961049694e-07 2.4890580815646943e-06 0.0000000000000000e+00  5.8516699579899246e-07 2.5095773897930694e-06 0.0000000000000000e+00  5.1039239411075565e-07 2.5267315104359154e-06 0.0000000000000000e+00  4.2100987609162351e-07 2.5459308379235895e-06 0.0000000000000000e+00  3.2526749964872711e-07 2.5661779958877710e-06 0.0000000000000000e+00  2.1581072346959787e-07 2.5878202361184882e-06 0.0000000000000000e+00  1.0553380653349949e-07 2.6173964792845279e-06 0.0000000000000000e+00  -3.6806238829330768e-08 2.6373000599046630e-06 0.0000000000000000e+00  -5.6965325289152294e-08 2.6187586587635240e-06 0.0000000000000000e+00  9.3452216576297366e-08 1.8448754591963809e-06 0.0000000000000000e+00  -2.9640955020363413e-07 -3.3156403531764811e-08 0.0000000000000000e+00  -1.1725798950104121e-05 -7.2074813404357884e-08 0.0000000000000000e+00  -1.0119676213659800e-05 -7.4298088175308248e-08 0.0000000000000000e+00  -7.7581649204251550e-06 -5.8264392744436198e-08 0.0000000000000000e+00  5.0355860094043209e-08 -2.9139393069766243e-08 0.0000000000000000e+00  -6.4341702403337375e-06 -3.9314149461496301e-08 0.0000000000000000e+00  2.7520739385003802e-07 -1.3279721382487305e-08 0.0000000000000000e+00  -5.2101375809331981e-06 -4.0520333823927832e-08 0.0000000000000000e+00  5.5652199275678014e-07 -2.8790581106906621e-08 0.0000000000000000e+00  6.7299585484980206e-07 -6.1015648718244938e-08 0.0000000000000000e+00  -4.1124387544038200e-06 -4.2534169103264989e-08 0.0000000000000000e+00  7.1401880530713784e-07 -1.5503486990534817e-08 0.0000000000000000e+00  -2.2875972723956726e-06 -4.6642019063086370e-08 0.0000000000000000e+00  7.3719627236124794e-07 -2.1847922372838869e-08 0.0000000000000000e+00  6.1033925236163488e-07 -4.6147948391372620e-08 0.0000000000000000e+00  -1.5540080024710385e-06 -4.7874970937054226e-08 0.0000000000000000e+00  -3.1391873077782968e-06 -4.4820492341880072e-08 0.0000000000000000e+00  4.2690178169181161e-07 -4.6261518641255947e-08 0.0000000000000000e+00  -9.3363728468600572e-07 -4.8625745474210240e-08 0.0000000000000000e+00  1.7150017072098047e-07 -1.7594411175700455e-08 0.0000000000000000e+00  -4.2976918274199770e-07 -7.5982480678309469e-08 0.0000000000000000e+00  -8.8337765259541855e-08 -4.7606027988002220e-08 0.0000000000000000e+00  7.4564949608167947e-07 -5.5463190099731359e-08 0.0000000000000000e+00  -8.9464674422918800e-06 -3.7803595622053736e-08 0.0000000000000000e+00  4.2280916545598854e-07 -5.7042158527972272e-08 0.0000000000000000e+00  -1.0905606379233511e-05 4.3651574697690461e-07 0.0000000000000000e+00  -9.6060020050152233e-08 9.3924802929092087e-07 0.0000000000000000e+00  -5.8060100710530317e-06 4.6213976917615997e-07 0.0000000000000000e+00  -7.0937291209325207e-06 4.4093975565557649e-07 0.0000000000000000e+00  1.7222498412613662e-07 -9.7396568087162224e-07 0.0000000000000000e+00  6.1910918642047605e-07 -8.0766868555895548e-07 0.0000000000000000e+00  -2.6984515935949158e-06 5.2143403321493588e-07 0.0000000000000000e+00  -4.6453664957908075e-06 4.8275025137219995e-07 0.0000000000000000e+00  6.7100191751129405e-07 -7.4795512958350548e-07 0.0000000000000000e+00  -1.9065604689716906e-06 5.4080864333752546e-07 0.0000000000000000e+00  7.1163509214668368e-07 -7.9258372157013424e-07 0.0000000000000000e+00  5.2825621005731444e-07 -7.3324454496080613e-07 0.0000000000000000e+00  -1.2304055102635448e-06 5.5967888570596540e-07 0.0000000000000000e+00  -3.6102673955293930e-06 5.0227603874975380e-07 0.0000000000000000e+00  3.0434506337150403e-07 -8.6601656185638079e-07 0.0000000000000000e+00  -6.6468187857036740e-07 5.7810059894490429e-07 0.0000000000000000e+00  -1.2805087533474198e-07 -7.5700266697531497e-07 0.0000000000000000e+00  -1.3975498935385530e-07 6.8865369202310718e-07 0.0000000000000000e+00  -1.2413845427938248e-05 -3.9563745217541855e-07 0.0000000000000000e+00  -8.1020395745365578e-08 -1.0870597145830070e-06 0.0