<?xml version="1.0"?>
<VTKFile type="UnstructuredGrid"  version="0.1"  >
<UnstructuredGrid>
<Piece  NumberOfPoints="1419" NumberOfCells="2698">
<Points>
<DataArray  type="Float64"  NumberOfComponents="3"  format="ascii">0 0 0  0 0.41 0  2.5 0 0  2.5 0.41 0  0.5999999455496359 0.1900000065382299 0  0.5999999456178394 0.2099999929180327 0  0.25 0.2 0  0.15 0.2 0  0.2489897948556636 0.21 0  0.2489897948556636 0.19 0  0.5999999454841867 0.1999999997298747 0  0 0.3807142857143437 0  0 0.3514285714286952 0  0 0.3221428571430699 0  0 0.29285714285744 0  0 0.2635714285718054 0  0 0.2342857142861561 0  0 0.2050000000005308 0  0 0.175714285714732 0  0 0.1464285714289574 0  0 0.1171428571431897 0  0 0.08785714285737878 0  0 0.05857142857161107 0  0 0.02928571428580012 0  0.03015443760436003 0 0  0.06140001986583606 0 0  0.09377624077125973 0 0  0.1273239957535082 0 0  0.1620856860351972 0 0  0.1981052433264291 0 0  0.235428184091502 0 0  0.2741016576309132 0 0  0.3141745521465447 0 0  0.3556974926295285 0 0  0.3987229542472677 0 0  0.4433053055141081 0 0  0.4895008759286886 0 0  0.5373680609405097 0 0  0.5869673343216626 0 0  0.6383613676634521 0 0  0.6916151138468254 0 0  0.7467958595648856 0 0  0.8039733463919316 0 0  0.8632198139502143 0 0  0.9246101326867038 0 0  0.9882218810934433 0 0  1.054135445558498 0 0  1.122434100542598 0 0  1.193204177141305 0 0  1.266535089879536 0 0  1.342519516046404 0 0  1.421253448503939 0 0  1.502836389106271 0 0  1.587371439758838 0 0  1.674965418777374 0 0  1.765729001825544 0 0  1.859776908880082 0 0  1.957227977487062 0 0  2.058205329869943 0 0  2.162836591189951 0 0  2.271253957290865 0 0  2.383594446803425 0 0  2.5 0.1024999999997612 0  2.5 0.2049999999994743 0  2.5 0.3074999999997183 0  2.383594446803656 0.41 0  2.271253957291315 0.41 0  2.162836591190598 0.41 0  2.058205329870775 0.41 0  1.957227977488067 0.41 0  1.859776908881246 0.41 0  1.765729001826854 0.41 0  1.674965418778818 0.41 0  1.58737143976041 0.41 0  1.502836389107956 0.41 0  1.421253448505726 0.41 0  1.342519516048286 0.41 0  1.266535089881505 0.41 0  1.193204177143353 0.41 0  1.122434100544716 0.41 0  1.05413544556068 0.41 0  0.9882218810956305 0.41 0  0.9246101326886647 0.41 0  0.8632198139519631 0.41 0  0.8039733463934788 0.41 0  0.7467958595662458 0.41 0  0.6916151138480078 0.41 0  0.6383613676644679 0.41 0  0.5869673343225223 0.41 0  0.5373680609412221 0.41 0  0.4895008759292634 0.41 0  0.4433053055145528 0.41 0  0.3987229542475914 0.41 0  0.3556974926297398 0.41 0  0.3141745521466497 0.41 0  0.2741016576310038 0.41 0  0.2354281840915826 0.41 0  0.1981052433265003 0.41 0  0.1620856860352591 0.41 0  0.1273239957535623 0.41 0  0.09377624077128965 0.41 0  0.06140001986584975 0.41 0  0.03015443760436654 0.41 0  0.2497468076502589 0.2050254481002335 0  0.2497468076502614 0.1949745518997913 0  0.2469965252529372 0.1829317073451959 0  0.2439893735792749 0.1762316384219906 0  0.2400332147834255 0.1700443375285386 0  0.2352133972704371 0.1645032867342007 0  0.2296339016332438 0.1597280261969788 0  0.2234150974217223 0.1558215752574715 0  0.2166911463437691 0.1528682099456123 0  0.2096071079204251 0.1509316448471593 0  0.2023158100364996 0.1500536585536553 0  0.194974551899914 0.1502531923497262 0  0.1877417105387872 0.1515259415822739 0  0.1807733240461124 0.153844448527136 0  0.1742197252835808 0.15715869474974 0  0.1682222986673531 0.1613971801805478 0  0.162910430003803 0.1664684656256651 0  0.1583987151779087 0.1722631454351573 0  0.1547844879126891 0.178656207771761 0  0.1521457199348551 0.1855097315605723 0  0.1505393388476355 0.1926758619366523 0  0.1505393388476328 0.2073241380633295 0  0.1521457199348437 0.2144902684393899 0  0.1547844879126531 0.221343792228163 0  0.1583987151778488 0.2277368545647528 0  0.1629104300036858 0.2335315343742052 0  0.1682222986671726 0.2386028198193036 0  0.1742197252833576 0.2428413052501257 0  0.1807733240458683 0.2461555514727623 0  0.1877417105384929 0.2484740584176516 0  0.1949745518995776 0.2497468076502398 0  0.202315810036185 0.2499463414463592 0  0.2096071079201568 0.2490683551528932 0  0.2166911463435495 0.2471317900544655 0  0.2234150974215506 0.2441784247426195 0  0.2296339016331197 0.2402719738031125 0  0.2352133972703547 0.2354967132658811 0  0.2400332147833751 0.2299556624715287 0  0.2439893735792577 0.2237683615780412 0  0.246996525252926 0.2170682926548348 0  0.2564580979202045 0.2099999865551189 0  0.2639263993025136 0.2099999860814771 0  0.271394702038863 0.2099999862158056 0  0.2788630049587558 0.2099999863389697 0  0.2863313078868043 0.2099999863967011 0  0.2937996107396453 0.2099999864648928 0  0.3012679135334825 0.2099999865481018 0  0.3087362162559377 0.2099999866473685 0  0.3162045189186447 0.2099999867609967 0  0.3236728215149089 0.2099999868704683 0  0.3311411240433805 0.2099999870042271 0  0.3386094265027999 0.2099999871235856 0  0.3460777288872842 0.2099999872574143 0  0.3535460312016463 0.2099999873863997 0  0.3610143334300203 0.2099999875168671 0  0.3684826355849671 0.2099999876477292 0  0.3759509376559362 0.2099999877662717 0  0.3834192396420422 0.2099999879030032 0  0.3908875415417368 0.2099999880201668 0  0.3983558433512703 0.2099999881585834 0  0.4058241450709575 0.2099999882822867 0  0.4132924466931996 0.2099999884208443 0  0.420760748225457 0.2099999885566175 0  0.4282290496467456 0.209999988699894 0  0.4356973509715465 0.2099999888458363 0  0.44316565218718 0.2099999889889173 0  0.4506339532926881 0.209999989146787 0  0.4581022542862715 0.209999989296401 0  0.4655705551592884 0.2099999894648033 0  0.4730388559130188 0.2099999896197301 0  0.480507156539645 0.2099999897977171 0  0.4879754570348175 0.2099999899607687 0  0.4954437573999988 0.2099999901472795 0  0.5029120576227962 0.2099999903251478 0  0.5103803576976543 0.2099999905212851 0  0.5178486576269808 0.2099999907010092 0  0.5253169574035067 0.2099999909043685 0  0.5327852570235069 0.2099999910932302 0  0.5402535564778227 0.2099999913104511 0  0.5477218557627868 0.2099999915094609 0  0.5551901548738725 0.2099999917266884 0  0.5626584538116344 0.209999991948019 0  0.5701267525484245 0.2099999921660593 0  0.577595051098674 0.2099999923952234 0  0.5850633494511847 0.2099999926206111 0  0.5925316476346189 0.2099999928914451 0  0.5999999454767941 0.2049999962845091 0  0.5999999454509034 0.1950000031763304 0  0.5925316475761924 0.1900000066148071 0  0.5850633494047514 0.1900000069271353 0  0.5775950510645117 0.1900000071828849 0  0.570126752523473 0.1900000074393561 0  0.5626584537956034 0.1900000076722455 0  0.5551901548672664 0.1900000078976966 0  0.5477218557635607 0.1900000081185794 0  0.5402535564817994 0.1900000083061947 0  0.5327852570318087 0.1900000085222087 0  0.5253169574167071 0.1900000086988175 0  0.5178486576411857 0.1900000089055947 0  0.5103803577105704 0.1900000090719713 0  0.5029120576314841 0.1900000092651725 0  0.4954437574087577 0.1900000094208922 0  0.4879754570469402 0.1900000096046088 0  0.48050715655069 0.1900000097550799 0  0.4730388559228694 0.1900000099332367 0  0.4655705551678923 0.1900000100779796 0  0.4581022542912693 0.1900000102466571 0  0.4506339532978325 0.1900000103839244 0  0.443165652191112 0.190000010545912 0  0.4356973509748009 0.190000010681403 0  0.4282290496489266 0.1900000108328528 0  0.4207607482253302 0.1900000109758484 0  0.4132924466922842 0.1900000111159034 0  0.405824145068469 0.1900000112532934 0  0.3983558433505757 0.1900000113820909 0  0.3908875415428379 0.1900000115209607 0  0.3834192396458539 0.1900000116462115 0  0.3759509376622182 0.1900000117789815 0  0.3684826355956446 0.1900000118961175 0  0.3610143334469804 0.1900000120151708 0  0.3535460312238782 0.190000012130543 0  0.3460777289134168 0.1900000122393299 0  0.338609426528813 0.1900000123474913 0  0.3311411240667617 0.1900000124443985 0  0.3236728215299634 0.1900000125527296 0  0.3162045189210077 0.1900000126504173 0  0.3087362162399294 0.1900000127610084 0  0.3012679134936939 0.1900000128744882 0  0.2937996106755449 0.1900000129965686 0  0.2863313077985789 0.1900000131246777 0  0.2788630048515853 0.1900000132644196 0  0.2713947019267406 0.1900000134942864 0  0.263926399203266 0.1900000137404366 0  0.2564580978116501 0.1900000133244306 0  0.2607803145065067 0.2000727134637735 0  0.5887803293309337 0.2001272383776711 0  0.5745071997625679 0.200204443146006 0  0.5511891130455129 0.2001122607318777 0  0.2751288534298106 0.1999999998284213 0  0.5365194068206418 0.1999999998093579 0  0.2894621243968197 0.1998691685554243 0  0.5215828075872515 0.1999999998027779 0  0.3127789854331082 0.1998657884190711 0  0.3274069728279933 0.1999999997158793 0  0.5066462077286408 0.1999999997951466 0  0.3650630796805296 0.1998660177421185 0  0.4767730062903003 0.1999999997760861 0  0.3417402428749207 0.1998691685436023 0  0.3796850886975468 0.1999999997747527 0  0.4618364047835981 0.1999999997707546 0  0.4917096072838053 0.1999999997837982 0  0.3946216924947752 0.1999999997707583 0  0.4468998027977273 0.19999999976596 0  0.4089549611184538 0.1998691685561974 0  0.4322718181193819 0.2001274508896324 0  0.4201487188136795 0.1999966196750216 0  0.3528922763844846 0.2000185700886853 0  0.563312208394234 0.1999814294725935 0  0.3006558839857921 0.199996619617244 0  0.5815926055872035 0.1966545305273203 0  0.267705378812076 0.1964246528336625 0  0.529051107281429 0.1970915850532764 0  0.543987706184425 0.1970915849418242 0  0.2825131272008929 0.203547894613486 0  0.3199386702558336 0.2029084132691139 0  0.4842413068505431 0.1970915853453925 0  0.5141145077306662 0.1970915851585076 0  0.372216786665444 0.202908413578017 0  0.4693047055961208 0.1970915854356304 0  0.3348752753192449 0.2029084133594175 0  0.3871533906365125 0.2029084136521572 0  0.4543681038452012 0.1970915855220791 0  0.4991779075740009 0.1970915852545208 0  0.4020059650374534 0.2035478952696353 0  0.4394315016316041 0.1970915856070808 0  0.2550657431351787 0.2034088087436999 0  0.254890847506608 0.1966940347442226 0  0.5946538996002928 0.20243
[...]
<PointData  Vectors="f_44-0"> 
<DataArray  type="Float64"  Name="f_44-0"  NumberOfComponents="3" format="ascii">0.0000000000000000e+00 0.0000000000000000e+00 0.0000000000000000e+00  0.0000000000000000e+00 0.0000000000000000e+00 0.0000000000000000e+00  0.0000000000000000e+00 0.0000000000000000e+00 0.0000000000000000e+00  0.0000000000000000e+00 0.0000000000000000e+00 0.0000000000000000e+00  -1.6558706170717828e-05 1.4924794999022578e-06 0.0000000000000000e+00  -1.6530414302866248e-05 -1.6501953282400842e-06 0.0000000000000000e+00  0.0000000000000000e+00 0.0000000000000000e+00 0.0000000000000000e+00  0.0000000000000000e+00 0.0000000000000000e+00 0.0000000000000000e+00  0.0000000000000000e+00 0.0000000000000000e+00 0.0000000000000000e+00  0.0000000000000000e+00 0.0000000000000000e+00 0.0000000000000000e+00  -1.6615793737342908e-05 -7.1812116924256417e-08 0.0000000000000000e+00  3.9767297240882602e-06 0.0000000000000000e+00 0.0000000000000000e+00  7.3416548752403518e-06 0.0000000000000000e+00 0.0000000000000000e+00  1.0094775453455485e-05 0.0000000000000000e+00 0.0000000000000000e+00  1.2236091458736849e-05 0.0000000000000000e+00 0.0000000000000000e+00  1.3765602891084161e-05 0.0000000000000000e+00 0.0000000000000000e+00  1.4683309750497339e-05 0.0000000000000000e+00 0.0000000000000000e+00  1.4989212036975455e-05 0.0000000000000000e+00 0.0000000000000000e+00  1.4683309750515891e-05 0.0000000000000000e+00 0.0000000000000000e+00  1.3765602891116035e-05 0.0000000000000000e+00 0.0000000000000000e+00  1.2236091458776319e-05 0.0000000000000000e+00 0.0000000000000000e+00  1.0094775453492982e-05 0.0000000000000000e+00 0.0000000000000000e+00  7.3416548752723485e-06 0.0000000000000000e+00 0.0000000000000000e+00  3.9767297241062876e-06 0.0000000000000000e+00 0.0000000000000000e+00  0.0000000000000000e+00 0.0000000000000000e+00 0.0000000000000000e+00  0.0000000000000000e+00 0.0000000000000000e+00 0.0000000000000000e+00  0.0000000000000000e+00 0.0000000000000000e+00 0.0000000000000000e+00  0.0000000000000000e+00 0.0000000000000000e+00 0.0000000000000000e+00  0.0000000000000000e+00 0.0000000000000000e+00 0.0000000000000000e+00  0.0000000000000000e+00 0.0000000000000000e+00 0.0000000000000000e+00  0.0000000000000000e+00 0.0000000000000000e+00 0.0000000000000000e+00  0.0000000000000000e+00 0.0000000000000000e+00 0.0000000000000000e+00  0.0000000000000000e+00 0.0000000000000000e+00 0.0000000000000000e+00  0.0000000000000000e+00 0.0000000000000000e+00 0.0000000000000000e+00  0.0000000000000000e+00 0.0000000000000000e+00 0.0000000000000000e+00  0.0000000000000000e+00 0.0000000000000000e+00 0.0000000000000000e+00  0.0000000000000000e+00 0.0000000000000000e+00 0.0000000000000000e+00  0.0000000000000000e+00 0.0000000000000000e+00 0.0000000000000000e+00  0.0000000000000000e+00 0.0000000000000000e+00 0.0000000000000000e+00  0.0000000000000000e+00 0.0000000000000000e+00 0.0000000000000000e+00  0.0000000000000000e+00 0.0000000000000000e+00 0.0000000000000000e+00  0.0000000000000000e+00 0.0000000000000000e+00 0.0000000000000000e+00  0.0000000000000000e+00 0.0000000000000000e+00 0.0000000000000000e+00  0.0000000000000000e+00 0.0000000000000000e+00 0.0000000000000000e+00  0.0000000000000000e+00 0.0000000000000000e+00 0.0000000000000000e+00  0.0000000000000000e+00 0.0000000000000000e+00 0.0000000000000000e+00  0.0000000000000000e+00 0.0000000000000000e+00 0.0000000000000000e+00  0.0000000000000000e+00 0.0000000000000000e+00 0.0000000000000000e+00  0.0000000000000000e+00 0.0000000000000000e+00 0.0000000000000000e+00  0.0000000000000000e+00 0.0000000000000000e+00 0.0000000000000000e+00  0.0000000000000000e+00 0.0000000000000000e+00 0.0000000000000000e+00  0.0000000000000000e+00 0.0000000000000000e+00 0.0000000000000000e+00  0.0000000000000000e+00 0.0000000000000000e+00 0.0000000000000000e+00  0.0000000000000000e+00 0.0000000000000000e+00 0.0000000000000000e+00  0.0000000000000000e+00 0.0000000000000000e+00 0.0000000000000000e+00  0.0000000000000000e+00 0.0000000000000000e+00 0.0000000000000000e+00  0.0000000000000000e+00 0.0000000000000000e+00 0.0000000000000000e+00  0.0000000000000000e+00 0.0000000000000000e+00 0.0000000000000000e+00  0.0000000000000000e+00 0.0000000000000000e+00 0.0000000000000000e+00  0.0000000000000000e+00 0.0000000000000000e+00 0.0000000000000000e+00  0.0000000000000000e+00 0.0000000000000000e+00 0.0000000000000000e+00  0.0000000000000000e+00 0.0000000000000000e+00 0.0000000000000000e+00  5.2165904635061911e-06 -9.3966034818453169e-09 0.0000000000000000e+00  5.3988295284400483e-06 7.8810736470766849e-09 0.0000000000000000e+00  5.2226282729870194e-06 2.0197906861071072e-08 0.0000000000000000e+00  0.0000000000000000e+00 0.0000000000000000e+00 0.0000000000000000e+00  0.0000000000000000e+00 0.0000000000000000e+00 0.0000000000000000e+00  0.0000000000000000e+00 0.0000000000000000e+00 0.0000000000000000e+00  0.0000000000000000e+00 0.0000000000000000e+00 0.0000000000000000e+00  0.0000000000000000e+00 0.0000000000000000e+00 0.0000000000000000e+00  0.0000000000000000e+00 0.0000000000000000e+00 0.0000000000000000e+00  0.0000000000000000e+00 0.0000000000000000e+00 0.0000000000000000e+00  0.0000000000000000e+00 0.0000000000000000e+00 0.0000000000000000e+00  0.0000000000000000e+00 0.0000000000000000e+00 0.0000000000000000e+00  0.0000000000000000e+00 0.0000000000000000e+00 0.0000000000000000e+00  0.0000000000000000e+00 0.0000000000000000e+00 0.0000000000000000e+00  0.0000000000000000e+00 0.0000000000000000e+00 0.0000000000000000e+00  0.0000000000000000e+00 0.0000000000000000e+00 0.0000000000000000e+00  0.0000000000000000e+00 0.0000000000000000e+00 0.0000000000000000e+00  0.0000000000000000e+00 0.0000000000000000e+00 0.0000000000000000e+00  0.0000000000000000e+00 0.0000000000000000e+00 0.0000000000000000e+00  0.0000000000000000e+00 0.0000000000000000e+00 0.0000000000000000e+00  0.0000000000000000e+00 0.0000000000000000e+00 0.0000000000000000e+00  0.0000000000000000e+00 0.0000000000000000e+00 0.0000000000000000e+00  0.0000000000000000e+00 0.0000000000000000e+00 0.0000000000000000e+00  0.0000000000000000e+00 0.0000000000000000e+00 0.0000000000000000e+00  0.0000000000000000e+00 0.0000000000000000e+00 0.0000000000000000e+00  0.0000000000000000e+00 0.0000000000000000e+00 0.0000000000000000e+00  0.0000000000000000e+00 0.0000000000000000e+00 0.0000000000000000e+00  0.0000000000000000e+00 0.0000000000000000e+00 0.0000000000000000e+00  0.0000000000000000e+00 0.0000000000000000e+00 0.0000000000000000e+00  0.0000000000000000e+00 0.0000000000000000e+00 0.0000000000000000e+00  0.0000000000000000e+00 0.0000000000000000e+00 0.0000000000000000e+00  0.0000000000000000e+00 0.0000000000000000e+00 0.0000000000000000e+00  0.0000000000000000e+00 0.0000000000000000e+00 0.0000000000000000e+00  0.0000000000000000e+00 0.0000000000000000e+00 0.0000000000000000e+00  0.0000000000000000e+00 0.0000000000000000e+00 0.0000000000000000e+00  0.0000000000000000e+00 0.0000000000000000e+00 0.0000000000000000e+00  0.0000000000000000e+00 0.0000000000000000e+00 0.0000000000000000e+00  0.0000000000000000e+00 0.0000000000000000e+00 0.0000000000000000e+00  0.0000000000000000e+00 0.0000000000000000e+00 0.0000000000000000e+00  0.0000000000000000e+00 0.0000000000000000e+00 0.0000000000000000e+00  0.0000000000000000e+00 0.0000000000000000e+00 0.0000000000000000e+00  0.0000000000000000e+00 0.0000000000000000e+00 0.0000000000000000e+00  0.0000000000000000e+00 0.0000000000000000e+00 0.0000000000000000e+00  0.0000000000000000e+00 0.0000000000000000e+00 0.0000000000000000e+00  0.0000000000000000e+00 0.0000000000000000e+00 0.0000000000000000e+00  0.0000000000000000e+00 0.0000000000000000e+00 0.0000000000000000e+00  0.0000000000000000e+00 0.0000000000000000e+00 0.0000000000000000e+00  0.0000000000000000e+00 0.0000000000000000e+00 0.0000000000000000e+00  0.0000000000000000e+00 0.0000000000000000e+00 0.0000000000000000e+00  0.0000000000000000e+00 0.0000000000000000e+00 0.0000000000000000e+00  0.0000000000000000e+00 0.0000000000000000e+00 0.0000000000000000e+00  0.0000000000000000e+00 0.0000000000000000e+00 0.0000000000000000e+00  0.0000000000000000e+00 0.0000000000000000e+00 0.0000000000000000e+00  0.0000000000000000e+00 0.0000000000000000e+00 0.0000000000000000e+00  0.0000000000000000e+00 0.0000000000000000e+00 0.0000000000000000e+00  0.0000000000000000e+00 0.0000000000000000e+00 0.0000000000000000e+00  0.0000000000000000e+00 0.0000000000000000e+00 0.0000000000000000e+00  0.0000000000000000e+00 0.0000000000000000e+00 0.0000000000000000e+00  0.0000000000000000e+00 0.0000000000000000e+00 0.0000000000000000e+00  0.0000000000000000e+00 0.0000000000000000e+00 0.0000000000000000e+00  0.0000000000000000e+00 0.0000000000000000e+00 0.0000000000000000e+00  0.0000000000000000e+00 0.0000000000000000e+00 0.0000000000000000e+00  0.0000000000000000e+00 0.0000000000000000e+00 0.0000000000000000e+00  0.0000000000000000e+00 0.0000000000000000e+00 0.0000000000000000e+00  0.0000000000000000e+00 0.0000000000000000e+00 0.0000000000000000e+00  0.0000000000000000e+00 0.0000000000000000e+00 0.0000000000000000e+00  0.0000000000000000e+00 0.0000000000000000e+00 0.0000000000000000e+00  0.0000000000000000e+00 0.0000000000000000e+00 0.0000000000000000e+00  0.0000000000000000e+00 0.0000000000000000e+00 0.0000000000000000e+00  0.0000000000000000e+00 0.0000000000000000e+00 0.0000000000000000e+00  0.0000000000000000e+00 0.0000000000000000e+00 0.0000000000000000e+00  0.0000000000000000e+00 0.0000000000000000e+00 0.0000000000000000e+00  0.0000000000000000e+00 0.0000000000000000e+00 0.0000000000000000e+00  0.0000000000000000e+00 0.0000000000000000e+00 0.0000000000000000e+00  0.0000000000000000e+00 0.0000000000000000e+00 0.0000000000000000e+00  0.0000000000000000e+00 0.0000000000000000e+00 0.0000000000000000e+00  0.0000000000000000e+00 0.0000000000000000e+00 0.0000000000000000e+00  0.0000000000000000e+00 0.0000000000000000e+00 0.0000000000000000e+00  0.0000000000000000e+00 0.0000000000000000e+00 0.0000000000000000e+00  0.0000000000000000e+00 0.0000000000000000e+00 0.0000000000000000e+00  0.0000000000000000e+00 0.0000000000000000e+00 0.0000000000000000e+00  4.0124019022223536e-08 -1.8509226824515025e-06 0.0000000000000000e+00  -1.0391501625364082e-07 -2.8587824827742879e-06 0.0000000000000000e+00  -1.2610687832961193e-07 -2.9079684838839806e-06 0.0000000000000000e+00  -3.8258704407851566e-09 -2.9087634654455236e-06 0.0000000000000000e+00  7.5560937985156208e-08 -2.8978317733611456e-06 0.0000000000000000e+00  1.5381202761956171e-07 -2.8929422016594621e-06 0.0000000000000000e+00  2.1374033838149227e-07 -2.8836200251040511e-06 0.0000000000000000e+00  2.6747774762972393e-07 -2.8727833783332489e-06 0.0000000000000000e+00  3.0308643200769616e-07 -2.8588258267002230e-06 0.0000000000000000e+00  3.2513241226658246e-07 -2.8327966026776560e-06 0.0000000000000000e+00  3.3213769806560299e-07 -2.8165836488314050e-06 0.0000000000000000e+00  3.2219988078822906e-07 -2.7848113272940353e-06 0.0000000000000000e+00  2.9630366235569669e-07 -2.7592583091107663e-06 0.0000000000000000e+00  2.4713514971465965e-07 -2.7315410834488047e-06 0.0000000000000000e+00  1.8573185881373984e-07 -2.7032421735995788e-06 0.0000000000000000e+00  9.9008613721792782e-08 -2.6776630858289454e-06 0.0000000000000000e+00  -8.1090373818134850e-09 -2.6405503141854961e-06 0.0000000000000000e+00  -1.3871507974382275e-07 -2.6190491304520873e-06 0.0000000000000000e+00  -2.9311137516972668e-07 -2.5811749644050903e-06 0.0000000000000000e+00  -4.7165673068983652e-07 -2.5580051653954525e-06 0.0000000000000000e+00  -6.7699901262953665e-07 -2.5206257346798863e-06 0.0000000000000000e+00  -9.0753669925823168e-07 -2.4902535031849739e-06 0.0000000000000000e+00  -1.1705561945761812e-06 -2.4580855293645699e-06 0.0000000000000000e+00  -1.4526124875883954e-06 -2.4247730203128571e-06 0.0000000000000000e+00  -1.7685316228930523e-06 -2.3928079715063245e-06 0.0000000000000000e+00  -2.1127453647080509e-06 -2.3509891121422019e-06 0.0000000000000000e+00  -2.4875978191518230e-06 -2.3208892502106480e-06 0.0000000000000000e+00  -2.8925244588376214e-06 -2.2772381192541750e-06 0.0000000000000000e+00  -3.3286115774235200e-06 -2.2447617964762311e-06 0.0000000000000000e+00  -3.7958365239189458e-06 -2.2007265485253020e-06 0.0000000000000000e+00  -4.2946433986718348e-06 -2.1667082592822423e-06 0.0000000000000000e+00  -4.8257270934512832e-06 -2.1212116955474724e-06 0.0000000000000000e+00  -5.3880376551173740e-06 -2.0877216673986758e-06 0.0000000000000000e+00  -5.9832788680752529e-06 -2.0391856367045513e-06 0.0000000000000000e+00  -6.6112835936120048e-06 -2.0057020832235423e-06 0.0000000000000000e+00  -7.2712528427328902e-06 -1.9583501611139485e-06 0.0000000000000000e+00  -7.9628966497045794e-06 -1.9252264430283965e-06 0.0000000000000000e+00  -8.6866376906089084e-06 -1.8781452592628765e-06 0.0000000000000000e+00  -9.4419224692899363e-06 -1.8455488657046946e-06 0.0000000000000000e+00  -1.0230213000637053e-05 -1.7996684185549795e-06 0.0000000000000000e+00  -1.1047621172416562e-05 -1.7641513400859989e-06 0.0000000000000000e+00  -1.1904533151948139e-05 -1.7299931016539241e-06 0.0000000000000000e+00  -1.2779227288098882e-05 -1.6934677459652819e-06 0.0000000000000000e+00  -1.3691012101976925e-05 -1.6600577992744824e-06 0.0000000000000000e+00  -1.4631421563330379e-05 -1.6150947221249468e-06 0.0000000000000000e+00  -1.5600425493524623e-05 -1.6091311923636681e-06 0.0000000000000000e+00  -1.6584252441538226e-05 -8.3895759761106943e-07 0.0000000000000000e+00  -1.6592269165256815e-05 6.8693034867402712e-07 0.0000000000000000e+00  -1.5610905150703526e-05 1.4761236173778580e-06 0.0000000000000000e+00  -1.4646016584593716e-05 1.4914985023960306e-06 0.0000000000000000e+00  -1.3704190055701167e-05 1.5506857275300728e-06 0.0000000000000000e+00  -1.2788268566215196e-05 1.5896877744953160e-06 0.0000000000000000e+00  -1.1911140591911143e-05 1.6330566426277915e-06 0.0000000000000000e+00  -1.1052635090307829e-05 1.6709549470209314e-06 0.0000000000000000e+00  -1.0233405806271780e-05 1.7073055428172847e-06 0.0000000000000000e+00  -9.4435323147185859e-06 1.7583970384926734e-06 0.0000000000000000e+00  -8.6867119831350155e-06 1.7851925671655137e-06 0.0000000000000000e+00  -7.9614776541454986e-06 1.8364370585150022e-06 0.0000000000000000e+00  -7.2690522601834949e-06 1.8632640967207723e-06 0.0000000000000000e+00  -6.6090053608790810e-06 1.9130762296088659e-06 0.0000000000000000e+00  -5.9814438597722027e-06 1.9396913562146799e-06 0.0000000000000000e+00  -5.3861896168624089e-06 1.9882604338404570e-06 0.0000000000000000e+00  -4.8234775644331667e-06 2.0152755050658559e-06 0.0000000000000000e+00  -4.2926505175811971e-06 2.0631360066966166e-06 0.0000000000000000e+00  -3.7942344215432542e-06 2.0909904554221398e-06 0.0000000000000000e+00  -3.3275688786870933e-06 2.1380032806025942e-06 0.0000000000000000e+00  -2.8923256240726483e-06 2.1654037554789016e-06 0.0000000000000000e+00  -2.4877485987328845e-06 2.2109480186776744e-06 0.0000000000000000e+00  -2.1135986803877457e-06 2.2384594052005938e-06 0.0000000000000000e+00  -1.7695366112282543e-06 2.2821743251667184e-06 0.0000000000000000e+00  -1.4536473458094622e-06 2.3147945031635586e-06 0.0000000000000000e+00  -1.1716056287203069e-06 2.3479988752949450e-06 0.0000000000000000e+00  -9.0917001458130355e-07 2.3823843362204350e-06 0.0000000000000000e+00  -6.7801336967532106e-07 2.4139218123713577e-06 0.0000000000000000e+00  -4.7224577908750369e-07 2.4517509307482825e-06 0.0000000000000000e+00  -2.9210369290983210e-07 2.4776810160298412e-06 0.0000000000000000e+00  -1.3645446051228120e-07 2.5133316385850884e-06 0.0000000000000000e+00  -4.6182035518702371e-09 2.5365268414935344e-06 0.0000000000000000e+00  1.0423963124965496e-07 2.5679057686167554e-06 0.0000000000000000e+00  1.9196721496855938e-07 2.5903961115084101e-06 0.0000000000000000e+00  2.5425457931120745e-07 2.6126519263452653e-06 0.0000000000000000e+00  3.0343628348100511e-07 2.6338213860473059e-06 0.0000000000000000e+00  3.2913425490097964e-07 2.6539732520833157e-06 0.0000000000000000e+00  3.3639191590301274e-07 2.6781813923948117e-06 0.0000000000000000e+00  3.2603437370793912e-07 2.6942263365786537e-06 0.0000000000000000e+00  2.9868786042694140e-07 2.7190224594827185e-06 0.0000000000000000e+00  2.5695472289282520e-07 2.7394800713661969e-06 0.0000000000000000e+00  1.9848172075558902e-07 2.7621080247796037e-06 0.0000000000000000e+00  1.3299297093091531e-07 2.7855512073401043e-06 0.0000000000000000e+00  5.1803209119523087e-08 2.8100058355074251e-06 0.0000000000000000e+00  -2.8659927597579385e-08 2.8429880479935769e-06 0.0000000000000000e+00  -1.5133761953707225e-07 2.8608200772543692e-06 0.0000000000000000e+00  -1.2718450604445342e-07 2.8278945857371582e-06 0.0000000000000000e+00  6.4373051995054764e-08 1.8618254881364517e-06 0.0000000000000000e+00  -3.6881642345048450e-07 -3.4908491769837817e-08 0.0000000000000000e+00  -1.5126045908884173e-05 -8.5240607743961855e-08 0.0000000000000000e+00  -1.3314391318501660e-05 -8.5895793967199282e-08 0.0000000000000000e+00  -1.0606499682680544e-05 -6.6331715772908353e-08 0.0000000000000000e+00  -7.1063811881137375e-08 -2.8059749051313809e-08 0.0000000000000000e+00  -9.0614361417376885e-06 -4.4655604874498923e-08 0.0000000000000000e+00  1.0129226404516223e-07 -1.1213770171966038e-08 0.0000000000000000e+00  -7.6117873663385835e-06 -4.5778220035205659e-08 0.0000000000000000e+00  2.8684709621175046e-07 -3.2707892210027387e-08 0.0000000000000000e+00  3.3346236786061515e-07 -7.0126891416607112e-08 0.0000000000000000e+00  -6.2911231439520307e-06 -4.8314783187175144e-08 0.0000000000000000e+00  1.4801866572394447e-07 -2.0429740675252933e-08 0.0000000000000000e+00  -4.0379235762916909e-06 -5.3425343460555521e-08 0.0000000000000000e+00  3.2062206772519261e-07 -2.8445140500779470e-08 0.0000000000000000e+00  -6.6096859329050056e-08 -5.2230027579945463e-08 0.0000000000000000e+00  -3.1033874643431357e-06 -5.4984714167220021e-08 0.0000000000000000e+00  -5.0999898864591895e-06 -5.1082568144049596e-08 0.0000000000000000e+00  -3.7604448829747665e-07 -5.1671348131304492e-08 0.0000000000000000e+00  -2.2934177178900221e-06 -5.5666303266973559e-08 0.0000000000000000e+00  -7.6596929746899903e-07 -2.1047732425924163e-08 0.0000000000000000e+00  -1.6158094417005796e-06 -8.4566793287453901e-08 0.0000000000000000e+00  -1.1406261123410548e-06 -5.3872355617965200e-08 0.0000000000000000e+00  2.6151982842689580e-07 -6.4529546719910974e-08 0.0000000000000000e+00  -1.1975804990697039e-05 -4.5185198145564287e-08 0.0000000000000000e+00  2.0499741148641246e-07 -6.0556939087658998e-08 0.0000000000000000e+00  -1.4204012238875330e-05 4.7025392558484021e-07 0.0000000000000000e+00  -1.9285828697874665e-07 1.0158760311593022e-06 0.0000000000000000e+00  -8.3198914515628731e-06 4.9494795547419849e-07 0.0000000000000000e+00  -9.8336400250271449e-06 4.7290903398084610e-07 0.0000000000000000e+00  2.3719826961825024e-08 -1.0521848567504233e-06 0.0000000000000000e+00  3.1671196169432037e-07 -8.7826773232246022e-07 0.0000000000000000e+00  -4.5525018137055019e-06 5.5604466709252362e-07 0.0000000000000000e+00  -6.9345673835944388e-06 5.1598461003999233e-07 0.0000000000000000e+00  5.2427283401667005e-08 -8.1104507330089720e-07 0.0000000000000000e+00  -3.5547289276021664e-06 5.7660965308336518e-07 0.0000000000000000e+00  3.3323487391047134e-07 -8.6332738093814517e-07 0.0000000000000000e+00  -2.0953704725358786e-07 -7.9336520046494525e-07 0.0000000000000000e+00  -2.6831574031299926e-06 5.9718470308434105e-07 0.0000000000000000e+00  -5.6787104900139185e-06 5.3603828381693288e-07 0.0000000000000000e+00  -5.6624232943265109e-07 -9.3541518189798599e-07 0.0000000000000000e+00  -1.9341417143107329e-06 6.1773507291910496e-07 0.0000000000000000e+00  -9.8515901839434723e-08 -8.2310637746743529e-07 0.0000000000000000e+00  -1.1189273832351666e-07 7.4508385602120246e-07 0.0000000000000000e+00  -1.5893612319859132e-05 -4.4137616862323485e-07 0.0000000000000000e+00  -1.7589638828578487e-07 -1.1694