<?xml version="1.0"?>
<VTKFile type="UnstructuredGrid"  version="0.1"  >
<UnstructuredGrid>
<Piece  NumberOfPoints="1419" NumberOfCells="2698">
<Points>
<DataArray  type="Float64"  NumberOfComponents="3"  format="ascii">0 0 0  0 0.41 0  2.5 0 0  2.5 0.41 0  0.5999999917629263 0.1900000016542753 0  0.5999999917762875 0.209999998238207 0  0.25 0.2 0  0.15 0.2 0  0.2489897948556636 0.21 0  0.2489897948556636 0.19 0  0.5999999917745866 0.1999999999468636 0  0 0.3807142857143437 0  0 0.3514285714286952 0  0 0.3221428571430699 0  0 0.29285714285744 0  0 0.2635714285718054 0  0 0.2342857142861561 0  0 0.2050000000005308 0  0 0.175714285714732 0  0 0.1464285714289574 0  0 0.1171428571431897 0  0 0.08785714285737878 0  0 0.05857142857161107 0  0 0.02928571428580012 0  0.03015443760436003 0 0  0.06140001986583606 0 0  0.09377624077125973 0 0  0.1273239957535082 0 0  0.1620856860351972 0 0  0.1981052433264291 0 0  0.235428184091502 0 0  0.2741016576309132 0 0  0.3141745521465447 0 0  0.3556974926295285 0 0  0.3987229542472677 0 0  0.4433053055141081 0 0  0.4895008759286886 0 0  0.5373680609405097 0 0  0.5869673343216626 0 0  0.6383613676634521 0 0  0.6916151138468254 0 0  0.7467958595648856 0 0  0.8039733463919316 0 0  0.8632198139502143 0 0  0.9246101326867038 0 0  0.9882218810934433 0 0  1.054135445558498 0 0  1.122434100542598 0 0  1.193204177141305 0 0  1.266535089879536 0 0  1.342519516046404 0 0  1.421253448503939 0 0  1.502836389106271 0 0  1.587371439758838 0 0  1.674965418777374 0 0  1.765729001825544 0 0  1.859776908880082 0 0  1.957227977487062 0 0  2.058205329869943 0 0  2.162836591189951 0 0  2.271253957290865 0 0  2.383594446803425 0 0  2.5 0.1024999999997612 0  2.5 0.2049999999994743 0  2.5 0.3074999999997183 0  2.383594446803656 0.41 0  2.271253957291315 0.41 0  2.162836591190598 0.41 0  2.058205329870775 0.41 0  1.957227977488067 0.41 0  1.859776908881246 0.41 0  1.765729001826854 0.41 0  1.674965418778818 0.41 0  1.58737143976041 0.41 0  1.502836389107956 0.41 0  1.421253448505726 0.41 0  1.342519516048286 0.41 0  1.266535089881505 0.41 0  1.193204177143353 0.41 0  1.122434100544716 0.41 0  1.05413544556068 0.41 0  0.9882218810956305 0.41 0  0.9246101326886647 0.41 0  0.8632198139519631 0.41 0  0.8039733463934788 0.41 0  0.7467958595662458 0.41 0  0.6916151138480078 0.41 0  0.6383613676644679 0.41 0  0.5869673343225223 0.41 0  0.5373680609412221 0.41 0  0.4895008759292634 0.41 0  0.4433053055145528 0.41 0  0.3987229542475914 0.41 0  0.3556974926297398 0.41 0  0.3141745521466497 0.41 0  0.2741016576310038 0.41 0  0.2354281840915826 0.41 0  0.1981052433265003 0.41 0  0.1620856860352591 0.41 0  0.1273239957535623 0.41 0  0.09377624077128965 0.41 0  0.06140001986584975 0.41 0  0.03015443760436654 0.41 0  0.2497468076502589 0.2050254481002335 0  0.2497468076502614 0.1949745518997913 0  0.2469965252529372 0.1829317073451959 0  0.2439893735792749 0.1762316384219906 0  0.2400332147834255 0.1700443375285386 0  0.2352133972704371 0.1645032867342007 0  0.2296339016332438 0.1597280261969788 0  0.2234150974217223 0.1558215752574715 0  0.2166911463437691 0.1528682099456123 0  0.2096071079204251 0.1509316448471593 0  0.2023158100364996 0.1500536585536553 0  0.194974551899914 0.1502531923497262 0  0.1877417105387872 0.1515259415822739 0  0.1807733240461124 0.153844448527136 0  0.1742197252835808 0.15715869474974 0  0.1682222986673531 0.1613971801805478 0  0.162910430003803 0.1664684656256651 0  0.1583987151779087 0.1722631454351573 0  0.1547844879126891 0.178656207771761 0  0.1521457199348551 0.1855097315605723 0  0.1505393388476355 0.1926758619366523 0  0.1505393388476328 0.2073241380633295 0  0.1521457199348437 0.2144902684393899 0  0.1547844879126531 0.221343792228163 0  0.1583987151778488 0.2277368545647528 0  0.1629104300036858 0.2335315343742052 0  0.1682222986671726 0.2386028198193036 0  0.1742197252833576 0.2428413052501257 0  0.1807733240458683 0.2461555514727623 0  0.1877417105384929 0.2484740584176516 0  0.1949745518995776 0.2497468076502398 0  0.202315810036185 0.2499463414463592 0  0.2096071079201568 0.2490683551528932 0  0.2166911463435495 0.2471317900544655 0  0.2234150974215506 0.2441784247426195 0  0.2296339016331197 0.2402719738031125 0  0.2352133972703547 0.2354967132658811 0  0.2400332147833751 0.2299556624715287 0  0.2439893735792577 0.2237683615780412 0  0.246996525252926 0.2170682926548348 0  0.2564580974092386 0.2099999962679867 0  0.2639263994909983 0.2099999961533431 0  0.2713947019386882 0.2099999962080324 0  0.2788630044276839 0.2099999962643237 0  0.2863313069112013 0.2099999963021608 0  0.2937996093670732 0.2099999963444958 0  0.3012679118024106 0.2099999963901151 0  0.3087362142110424 0.2099999964369494 0  0.3162045166009204 0.2099999964854505 0  0.3236728189691792 0.2099999965278717 0  0.3311411213175316 0.2099999965757941 0  0.3386094236462123 0.2099999966155947 0  0.3460777259550053 0.2099999966580693 0  0.353546028247496 0.2099999966976882 0  0.3610143305192983 0.2099999967357278 0  0.3684826327768735 0.2099999967731923 0  0.3759509350178748 0.209999996806111 0  0.3834192372435733 0.2099999968431611 0  0.3908875394546684 0.2099999968740073 0  0.3983558416511659 0.2099999969093166 0  0.4058241438340405 0.2099999969400434 0  0.4132924460020908 0.2099999969733028 0  0.4207607481581351 0.209999997005537 0  0.4282290502968131 0.2099999970378926 0  0.4356973524225842 0.2099999970706671 0  0.4431656545324105 0.2099999971022285 0  0.4506339566260859 0.2099999971366782 0  0.4581022587030494 0.2099999971691921 0  0.4655705607610083 0.2099999972057676 0  0.4730388627997338 0.209999997239573 0  0.4805071648167276 0.2099999972788503 0  0.4879754668100613 0.2099999973152838 0  0.4954437687791158 0.2099999973579424 0  0.5029120707194262 0.209999997399735 0  0.5103803726277656 0.2099999974469449 0  0.5178486745033715 0.2099999974913535 0  0.5253169763422522 0.2099999975435159 0  0.5327852781415929 0.2099999975940071 0  0.5402535798957717 0.2099999976550176 0  0.5477218816014123 0.2099999977133361 0  0.5551901832542986 0.2099999977800285 0  0.5626584848523125 0.2099999978517298 0  0.5701267863813859 0.2099999979249827 0  0.5775950878449826 0.2099999980057389 0  0.5850633892350146 0.2099999980884505 0  0.5925316905518248 0.2099999981913126 0  0.5999999917613824 0.2049999990806111 0  0.5999999917572647 0.1950000008140348 0  0.5925316905418823 0.1900000017104157 0  0.5850633892291567 0.1900000018201786 0  0.5775950878424945 0.1900000019061294 0  0.5701267863804573 0.1900000019902005 0  0.5626584848527081 0.1900000020635219 0  0.5551901832562089 0.1900000021329296 0  0.5477218816044384 0.1900000021983169 0  0.5402535798985392 0.1900000022518603 0  0.5327852781448555 0.1900000023118298 0  0.5253169763464639 0.1900000023593444 0  0.5178486745072685 0.1900000024132504 0  0.5103803726308705 0.1900000024551537 0  0.5029120707211311 0.1900000025021904 0  0.495443768780943 0.1900000025389113 0  0.4879754668129929 0.1900000025811964 0  0.4805071648195488 0.1900000026151211 0  0.4730388628024405 0.1900000026546058 0  0.4655705607635877 0.1900000026862449 0  0.4581022587049829 0.1900000027227693 0  0.4506339566282754 0.1900000027523421 0  0.4431656545345628 0.1900000027873519 0  0.4356973524248295 0.1900000028168067 0  0.4282290502988899 0.1900000028502306 0  0.4207607481598295 0.1900000028818318 0  0.4132924460036037 0.1900000029141484 0  0.4058241438350356 0.1900000029462258 0  0.3983558416523673 0.1900000029772825 0  0.3908875394557877 0.1900000030120907 0  0.3834192372447394 0.1900000030447898 0  0.3759509350187315 0.1900000030812042 0  0.368482632777889 0.1900000031151154 0  0.3610143305212057 0.1900000031516181 0  0.3535460282504472 0.1900000031887633 0  0.3460777259589894 0.190000003226639 0  0.3386094236510458 0.1900000032656251 0  0.3311411213234617 0.1900000033019875 0  0.3236728189758022 0.1900000033430066 0  0.3162045166071547 0.1900000033799508 0  0.308736214215823 0.1900000034212715 0  0.3012679118026644 0.1900000034627554 0  0.2937996093617578 0.1900000035074164 0  0.2863313068974422 0.1900000035543045 0  0.2788630044051688 0.1900000036052475 0  0.2713947019095588 0.1900000036861945 0  0.2639263994605016 0.1900000037735988 0  0.2564580973737794 0.1900000036836789 0  0.2607803157196583 0.2000727135734273 0  0.5887803706970136 0.200127238629645 0  0.5745072352812348 0.2002044434185567 0  0.5511891400271852 0.200112260939681 0  0.2751288531759935 0.1999999999398789 0  0.5365194290442223 0.1999999999533924 0  0.2894621232748272 0.1998691686114386 0  0.5215828254463469 0.1999999999518579 0  0.3127789832286921 0.1998657885212468 0  0.3274069701640667 0.199999999937446 0  0.5066462216941078 0.1999999999507802 0  0.3650630767918837 0.1998660177945772 0  0.4767730138258852 0.1999999999470328 0  0.3417402399535101 0.1998691686237727 0  0.3796850861461572 0.1999999999440042 0  0.4618364097487092 0.1999999999459106 0  0.491709617813445 0.1999999999485204 0  0.3946216905679482 0.1999999999432969 0  0.4468998055953651 0.1999999999446431 0  0.4089549600784012 0.1998691686215751 0  0.4322718191660486 0.2001274511728093 0  0.4201487186716626 0.1999966198496408 0  0.3528922734051176 0.2000185702906986 0  0.5633122396647536 0.1999814296085488 0  0.3006558822949545 0.19999661983139 0  0.5815926439492179 0.1966545289083448 0  0.2677053791195489 0.19642464925179 0  0.5290511272654372 0.1970915833317368 0  0.5439877307741516 0.1970915833011801 0  0.2825131264577346 0.2035478982328884 0  0.3199386678042409 0.2029084162515537 0  0.4842413158310752 0.1970915834045805 0  0.5141145235868634 0.1970915833596129 0  0.3722167839121203 0.2029084163409954 0  0.4693047117968957 0.1970915834246561 0  0.3348752724997928 0.2029084162820099 0  0.3871533883633612 0.2029084163607896 0  0.4543681076801319 0.1970915834432939 0  0.4991779197674311 0.1970915833834749 0  0.402005963533374 0.2035478984708955 0  0.4394315034926299 0.1970915834613966 0  0.2550657449399538 0.2034088114784008 0  0.2548908493153281 0.1966940321504183 0  0.59465394352
[...]
<PointData  Vectors="f_44-0"> 
<DataArray  type="Float64"  Name="f_44-0"  NumberOfComponents="3" format="ascii">0.0000000000000000e+00 0.0000000000000000e+00 0.0000000000000000e+00  0.0000000000000000e+00 0.0000000000000000e+00 0.0000000000000000e+00  0.0000000000000000e+00 0.0000000000000000e+00 0.0000000000000000e+00  0.0000000000000000e+00 0.0000000000000000e+00 0.0000000000000000e+00  -4.4101349606323610e-06 7.4895753949664281e-07 0.0000000000000000e+00  -4.4003264568047985e-06 -8.0377560123546970e-07 0.0000000000000000e+00  0.0000000000000000e+00 0.0000000000000000e+00 0.0000000000000000e+00  0.0000000000000000e+00 0.0000000000000000e+00 0.0000000000000000e+00  0.0000000000000000e+00 0.0000000000000000e+00 0.0000000000000000e+00  0.0000000000000000e+00 0.0000000000000000e+00 0.0000000000000000e+00  -4.4183654650865129e-06 -2.4955433059106191e-08 0.0000000000000000e+00  1.2273998502050262e-06 0.0000000000000000e+00 0.0000000000000000e+00  2.2659689542248138e-06 0.0000000000000000e+00 0.0000000000000000e+00  3.1157073120591199e-06 0.0000000000000000e+00 0.0000000000000000e+00  3.7766149237089276e-06 0.0000000000000000e+00 0.0000000000000000e+00  4.2486917891741502e-06 0.0000000000000000e+00 0.0000000000000000e+00  4.5319379084547623e-06 0.0000000000000000e+00 0.0000000000000000e+00  4.6263532815504779e-06 0.0000000000000000e+00 0.0000000000000000e+00  4.5319379084604882e-06 0.0000000000000000e+00 0.0000000000000000e+00  4.2486917891839877e-06 0.0000000000000000e+00 0.0000000000000000e+00  3.7766149237211096e-06 0.0000000000000000e+00 0.0000000000000000e+00  3.1157073120706929e-06 0.0000000000000000e+00 0.0000000000000000e+00  2.2659689542346898e-06 0.0000000000000000e+00 0.0000000000000000e+00  1.2273998502105904e-06 0.0000000000000000e+00 0.0000000000000000e+00  0.0000000000000000e+00 0.0000000000000000e+00 0.0000000000000000e+00  0.0000000000000000e+00 0.0000000000000000e+00 0.0000000000000000e+00  0.0000000000000000e+00 0.0000000000000000e+00 0.0000000000000000e+00  0.0000000000000000e+00 0.0000000000000000e+00 0.0000000000000000e+00  0.0000000000000000e+00 0.0000000000000000e+00 0.0000000000000000e+00  0.0000000000000000e+00 0.0000000000000000e+00 0.0000000000000000e+00  0.0000000000000000e+00 0.0000000000000000e+00 0.0000000000000000e+00  0.0000000000000000e+00 0.0000000000000000e+00 0.0000000000000000e+00  0.0000000000000000e+00 0.0000000000000000e+00 0.0000000000000000e+00  0.0000000000000000e+00 0.0000000000000000e+00 0.0000000000000000e+00  0.0000000000000000e+00 0.0000000000000000e+00 0.0000000000000000e+00  0.0000000000000000e+00 0.0000000000000000e+00 0.0000000000000000e+00  0.0000000000000000e+00 0.0000000000000000e+00 0.0000000000000000e+00  0.0000000000000000e+00 0.0000000000000000e+00 0.0000000000000000e+00  0.0000000000000000e+00 0.0000000000000000e+00 0.0000000000000000e+00  0.0000000000000000e+00 0.0000000000000000e+00 0.0000000000000000e+00  0.0000000000000000e+00 0.0000000000000000e+00 0.0000000000000000e+00  0.0000000000000000e+00 0.0000000000000000e+00 0.0000000000000000e+00  0.0000000000000000e+00 0.0000000000000000e+00 0.0000000000000000e+00  0.0000000000000000e+00 0.0000000000000000e+00 0.0000000000000000e+00  0.0000000000000000e+00 0.0000000000000000e+00 0.0000000000000000e+00  0.0000000000000000e+00 0.0000000000000000e+00 0.0000000000000000e+00  0.0000000000000000e+00 0.0000000000000000e+00 0.0000000000000000e+00  0.0000000000000000e+00 0.0000000000000000e+00 0.0000000000000000e+00  0.0000000000000000e+00 0.0000000000000000e+00 0.0000000000000000e+00  0.0000000000000000e+00 0.0000000000000000e+00 0.0000000000000000e+00  0.0000000000000000e+00 0.0000000000000000e+00 0.0000000000000000e+00  0.0000000000000000e+00 0.0000000000000000e+00 0.0000000000000000e+00  0.0000000000000000e+00 0.0000000000000000e+00 0.0000000000000000e+00  0.0000000000000000e+00 0.0000000000000000e+00 0.0000000000000000e+00  0.0000000000000000e+00 0.0000000000000000e+00 0.0000000000000000e+00  0.0000000000000000e+00 0.0000000000000000e+00 0.0000000000000000e+00  0.0000000000000000e+00 0.0000000000000000e+00 0.0000000000000000e+00  0.0000000000000000e+00 0.0000000000000000e+00 0.0000000000000000e+00  0.0000000000000000e+00 0.0000000000000000e+00 0.0000000000000000e+00  0.0000000000000000e+00 0.0000000000000000e+00 0.0000000000000000e+00  0.0000000000000000e+00 0.0000000000000000e+00 0.0000000000000000e+00  0.0000000000000000e+00 0.0000000000000000e+00 0.0000000000000000e+00  7.5415367840930963e-07 -1.5526570878841956e-09 0.0000000000000000e+00  7.8012759678044017e-07 1.1860014373513832e-09 0.0000000000000000e+00  7.5508548196310392e-07 3.1416520060843415e-09 0.0000000000000000e+00  0.0000000000000000e+00 0.0000000000000000e+00 0.0000000000000000e+00  0.0000000000000000e+00 0.0000000000000000e+00 0.0000000000000000e+00  0.0000000000000000e+00 0.0000000000000000e+00 0.0000000000000000e+00  0.0000000000000000e+00 0.0000000000000000e+00 0.0000000000000000e+00  0.0000000000000000e+00 0.0000000000000000e+00 0.0000000000000000e+00  0.0000000000000000e+00 0.0000000000000000e+00 0.0000000000000000e+00  0.0000000000000000e+00 0.0000000000000000e+00 0.0000000000000000e+00  0.0000000000000000e+00 0.0000000000000000e+00 0.0000000000000000e+00  0.0000000000000000e+00 0.0000000000000000e+00 0.0000000000000000e+00  0.0000000000000000e+00 0.0000000000000000e+00 0.0000000000000000e+00  0.0000000000000000e+00 0.0000000000000000e+00 0.0000000000000000e+00  0.0000000000000000e+00 0.0000000000000000e+00 0.0000000000000000e+00  0.0000000000000000e+00 0.0000000000000000e+00 0.0000000000000000e+00  0.0000000000000000e+00 0.0000000000000000e+00 0.0000000000000000e+00  0.0000000000000000e+00 0.0000000000000000e+00 0.0000000000000000e+00  0.0000000000000000e+00 0.0000000000000000e+00 0.0000000000000000e+00  0.0000000000000000e+00 0.0000000000000000e+00 0.0000000000000000e+00  0.0000000000000000e+00 0.0000000000000000e+00 0.0000000000000000e+00  0.0000000000000000e+00 0.0000000000000000e+00 0.0000000000000000e+00  0.0000000000000000e+00 0.0000000000000000e+00 0.0000000000000000e+00  0.0000000000000000e+00 0.0000000000000000e+00 0.0000000000000000e+00  0.0000000000000000e+00 0.0000000000000000e+00 0.0000000000000000e+00  0.0000000000000000e+00 0.0000000000000000e+00 0.0000000000000000e+00  0.0000000000000000e+00 0.0000000000000000e+00 0.0000000000000000e+00  0.0000000000000000e+00 0.0000000000000000e+00 0.0000000000000000e+00  0.0000000000000000e+00 0.0000000000000000e+00 0.0000000000000000e+00  0.0000000000000000e+00 0.0000000000000000e+00 0.0000000000000000e+00  0.0000000000000000e+00 0.0000000000000000e+00 0.0000000000000000e+00  0.0000000000000000e+00 0.0000000000000000e+00 0.0000000000000000e+00  0.0000000000000000e+00 0.0000000000000000e+00 0.0000000000000000e+00  0.0000000000000000e+00 0.0000000000000000e+00 0.0000000000000000e+00  0.0000000000000000e+00 0.0000000000000000e+00 0.0000000000000000e+00  0.0000000000000000e+00 0.0000000000000000e+00 0.0000000000000000e+00  0.0000000000000000e+00 0.0000000000000000e+00 0.0000000000000000e+00  0.0000000000000000e+00 0.0000000000000000e+00 0.0000000000000000e+00  0.0000000000000000e+00 0.0000000000000000e+00 0.0000000000000000e+00  0.0000000000000000e+00 0.0000000000000000e+00 0.0000000000000000e+00  0.0000000000000000e+00 0.0000000000000000e+00 0.0000000000000000e+00  0.0000000000000000e+00 0.0000000000000000e+00 0.0000000000000000e+00  0.0000000000000000e+00 0.0000000000000000e+00 0.0000000000000000e+00  0.0000000000000000e+00 0.0000000000000000e+00 0.0000000000000000e+00  0.0000000000000000e+00 0.0000000000000000e+00 0.0000000000000000e+00  0.0000000000000000e+00 0.0000000000000000e+00 0.0000000000000000e+00  0.0000000000000000e+00 0.0000000000000000e+00 0.0000000000000000e+00  0.0000000000000000e+00 0.0000000000000000e+00 0.0000000000000000e+00  0.0000000000000000e+00 0.0000000000000000e+00 0.0000000000000000e+00  0.0000000000000000e+00 0.0000000000000000e+00 0.0000000000000000e+00  0.0000000000000000e+00 0.0000000000000000e+00 0.0000000000000000e+00  0.0000000000000000e+00 0.0000000000000000e+00 0.0000000000000000e+00  0.0000000000000000e+00 0.0000000000000000e+00 0.0000000000000000e+00  0.0000000000000000e+00 0.0000000000000000e+00 0.0000000000000000e+00  0.0000000000000000e+00 0.0000000000000000e+00 0.0000000000000000e+00  0.0000000000000000e+00 0.0000000000000000e+00 0.0000000000000000e+00  0.0000000000000000e+00 0.0000000000000000e+00 0.0000000000000000e+00  0.0000000000000000e+00 0.0000000000000000e+00 0.0000000000000000e+00  0.0000000000000000e+00 0.0000000000000000e+00 0.0000000000000000e+00  0.0000000000000000e+00 0.0000000000000000e+00 0.0000000000000000e+00  0.0000000000000000e+00 0.0000000000000000e+00 0.0000000000000000e+00  0.0000000000000000e+00 0.0000000000000000e+00 0.0000000000000000e+00  0.0000000000000000e+00 0.0000000000000000e+00 0.0000000000000000e+00  0.0000000000000000e+00 0.0000000000000000e+00 0.0000000000000000e+00  0.0000000000000000e+00 0.0000000000000000e+00 0.0000000000000000e+00  0.0000000000000000e+00 0.0000000000000000e+00 0.0000000000000000e+00  0.0000000000000000e+00 0.0000000000000000e+00 0.0000000000000000e+00  0.0000000000000000e+00 0.0000000000000000e+00 0.0000000000000000e+00  0.0000000000000000e+00 0.0000000000000000e+00 0.0000000000000000e+00  0.0000000000000000e+00 0.0000000000000000e+00 0.0000000000000000e+00  0.0000000000000000e+00 0.0000000000000000e+00 0.0000000000000000e+00  0.0000000000000000e+00 0.0000000000000000e+00 0.0000000000000000e+00  0.0000000000000000e+00 0.0000000000000000e+00 0.0000000000000000e+00  0.0000000000000000e+00 0.0000000000000000e+00 0.0000000000000000e+00  0.0000000000000000e+00 0.0000000000000000e+00 0.0000000000000000e+00  0.0000000000000000e+00 0.0000000000000000e+00 0.0000000000000000e+00  0.0000000000000000e+00 0.0000000000000000e+00 0.0000000000000000e+00  0.0000000000000000e+00 0.0000000000000000e+00 0.0000000000000000e+00  0.0000000000000000e+00 0.0000000000000000e+00 0.0000000000000000e+00  0.0000000000000000e+00 0.0000000000000000e+00 0.0000000000000000e+00  0.0000000000000000e+00 0.0000000000000000e+00 0.0000000000000000e+00  9.3856630768422876e-08 -1.2418503118383297e-06 0.0000000000000000e+00  4.6478031071449401e-08 -1.5473787045557284e-06 0.0000000000000000e+00  1.0455809711965660e-07 -1.5517413431166644e-06 0.0000000000000000e+00  2.1152410652975976e-07 -1.5444909777368750e-06 0.0000000000000000e+00  3.0634333191369697e-07 -1.5349008857223301e-06 0.0000000000000000e+00  3.9709934637816711e-07 -1.5268657602851509e-06 0.0000000000000000e+00  4.7857825112535309e-07 -1.5164876458255367e-06 0.0000000000000000e+00  5.5677404560151069e-07 -1.5047152349734039e-06 0.0000000000000000e+00  6.2614100970024111e-07 -1.4923883119948149e-06 0.0000000000000000e+00  6.8911162613088017e-07 -1.4766560219981879e-06 0.0000000000000000e+00  7.4475697333574590e-07 -1.4649431661360767e-06 0.0000000000000000e+00  7.9273674192393986e-07 -1.4493254149230433e-06 0.0000000000000000e+00  8.3338825754610480e-07 -1.4362073769747587e-06 0.0000000000000000e+00  8.6435089959434948e-07 -1.4236014993457824e-06 0.0000000000000000e+00  8.8973789101494605e-07 -1.4107124538178411e-06 0.0000000000000000e+00  9.0562640786912731e-07 -1.3992495507853053e-06 0.0000000000000000e+00  9.1386416959183885e-07 -1.3850050929725642e-06 0.0000000000000000e+00  9.1391971283865715e-07 -1.3746193259866473e-06 0.0000000000000000e+00  9.0590158720686156e-07 -1.3606793608307223e-06 0.0000000000000000e+00  8.9001705556666344e-07 -1.3498785365193278e-06 0.0000000000000000e+00  8.6570012647721281e-07 -1.3362190121382025e-06 0.0000000000000000e+00  8.3332907984504502e-07 -1.3237611890706081e-06 0.0000000000000000e+00  7.9126794124138206e-07 -1.3115447858704502e-06 0.0000000000000000e+00  7.4243795148283578e-07 -1.2981820087611284e-06 0.0000000000000000e+00  6.8353200946972875e-07 -1.2854045551599631e-06 0.0000000000000000e+00  6.1523821765582403e-07 -1.2704305143845215e-06 0.0000000000000000e+00  5.3695043045494010e-07 -1.2573447687025861e-06 0.0000000000000000e+00  4.4841993889037750e-07 -1.2413913628218984e-06 0.0000000000000000e+00  3.4864290294193184e-07 -1.2267312996300282e-06 0.0000000000000000e+00  2.3731168103968681e-07 -1.2098531243624067e-06 0.0000000000000000e+00  1.1346110171063565e-07 -1.1935126971330834e-06 0.0000000000000000e+00  -2.3914795409435074e-08 -1.1749039863444847e-06 0.0000000000000000e+00  -1.7492827504466638e-07 -1.1570481854130199e-06 0.0000000000000000e+00  -3.4168584260098156e-07 -1.1353667174036212e-06 0.0000000000000000e+00  -5.2520564054202495e-07 -1.1155397947760288e-06 0.0000000000000000e+00  -7.2591111600269313e-07 -1.0926351163617890e-06 0.0000000000000000e+00  -9.4487257694855375e-07 -1.0708145649361343e-06 0.0000000000000000e+00  -1.1835127458999356e-06 -1.0452781833180292e-06 0.0000000000000000e+00  -1.4430885864365880e-06 -1.0203500970877420e-06 0.0000000000000000e+00  -1.7254876254676534e-06 -9.9197500014417066e-07 0.0000000000000000e+00  -2.0302703763519879e-06 -9.6397334058008719e-07 0.0000000000000000e+00  -2.3622839033876349e-06 -9.3527590515159986e-07 0.0000000000000000e+00  -2.7162190743751249e-06 -9.0479602608058723e-07 0.0000000000000000e+00  -3.0988688693307347e-06 -8.7375216948068329e-07 0.0000000000000000e+00  -3.5094367863885129e-06 -8.3837240976854419e-07 0.0000000000000000e+00  -3.9474718627924752e-06 -8.0928868174630384e-07 0.0000000000000000e+00  -4.4128939417020265e-06 -4.1199951878593401e-07 0.0000000000000000e+00  -4.4155661856304231e-06 3.5932213535849672e-07 0.0000000000000000e+00  -3.9512287645325145e-06 7.6292053145361131e-07 0.0000000000000000e+00  -3.5134606284395828e-06 7.9451444782154284e-07 0.0000000000000000e+00  -3.1016911722177735e-06 8.3381474069680802e-07 0.0000000000000000e+00  -2.7173231230274302e-06 8.6568389771665696e-07 0.0000000000000000e+00  -2.3625917213861051e-06 8.9700210895830880e-07 0.0000000000000000e+00  -2.0299771408099597e-06 9.2486878558171415e-07 0.0000000000000000e+00  -1.7248416448962461e-06 9.5201604040357044e-07 0.0000000000000000e+00  -1.4424421999677904e-06 9.7992479243418345e-07 0.0000000000000000e+00  -1.1825910776152399e-06 1.0026815115769445e-06 0.0000000000000000e+00  -9.4355738156423823e-07 1.0286070076140374e-06 0.0000000000000000e+00  -7.2467821697303862e-07 1.0495685864449136e-06 0.0000000000000000e+00  -5.2435861733015780e-07 1.0727961761551053e-06 0.0000000000000000e+00  -3.4145985484010024e-07 1.0912272725324630e-06 0.0000000000000000e+00  -1.7466989371678503e-07 1.1117394194935369e-06 0.0000000000000000e+00  -2.3200190779706517e-08 1.1282201110071410e-06 0.0000000000000000e+00  1.1416212778246178e-07 1.1469485983704728e-06 0.0000000000000000e+00  2.3791998036180103e-07 1.1621280850761305e-06 0.0000000000000000e+00  3.4914631673093491e-07 1.1792925890151642e-06 0.0000000000000000e+00  4.4859116958057557e-07 1.1928423032647368e-06 0.0000000000000000e+00  5.3720664783189328e-07 1.2084957477038667e-06 0.0000000000000000e+00  6.1541273141053748e-07 1.2210462346971780e-06 0.0000000000000000e+00  6.8374232378217290e-07 1.2358574966584164e-06 0.0000000000000000e+00  7.4278170150037594e-07 1.2486219077279782e-06 0.0000000000000000e+00  7.9152749959430709e-07 1.2614788775397311e-06 0.0000000000000000e+00  8.3342314827746390e-07 1.2739301685517242e-06 0.0000000000000000e+00  8.6578437694038064e-07 1.2860661534403707e-06 0.0000000000000000e+00  8.9010323317509911e-07 1.2996392916779990e-06 0.0000000000000000e+00  9.0622879020961359e-07 1.3109579427777903e-06 0.0000000000000000e+00  9.1425111717512438e-07 1.3247881283372664e-06 0.0000000000000000e+00  9.1419477643868617e-07 1.3360684156049959e-06 0.0000000000000000e+00  9.0618605636757675e-07 1.3496722302221077e-06 0.0000000000000000e+00  8.9051270692425601e-07 1.3613073929675712e-06 0.0000000000000000e+00  8.6565266645333993e-07 1.3735492553460952e-06 0.0000000000000000e+00  8.3536275196938988e-07 1.3849715084810947e-06 0.0000000000000000e+00  7.9564744686886502e-07 1.3965059497355024e-06 0.0000000000000000e+00  7.4809677754655271e-07 1.4088073252596761e-06 0.0000000000000000e+00  6.9259925504134367e-07 1.4182735862260070e-06 0.0000000000000000e+00  6.2904705684450143e-07 1.4300143878508595e-06 0.0000000000000000e+00  5.5788045474587659e-07 1.4401256286971030e-06 0.0000000000000000e+00  4.7752807603106374e-07 1.4509706974034933e-06 0.0000000000000000e+00  3.9247579154443562e-07 1.4626124600913282e-06 0.0000000000000000e+00  2.9840193172917021e-07 1.4755031094733490e-06 0.0000000000000000e+00  2.0017171312510199e-07 1.4935686630419812e-06 0.0000000000000000e+00  9.0596461533079078e-08 1.5120496505386378e-06 0.0000000000000000e+00  3.2216355653690324e-08 1.5207557539151772e-06 0.0000000000000000e+00  9.2099061104644097e-08 1.2337803431710584e-06 0.0000000000000000e+00  -1.2301989832448850e-07 -2.1971401137947403e-08 0.0000000000000000e+00  -3.7226687529477537e-06 -3.2986962335089586e-08 0.0000000000000000e+00  -2.9308777174823875e-06 -3.7191490554194840e-08 0.0000000000000000e+00  -1.8570707851505688e-06 -3.0637371945085456e-08 0.0000000000000000e+00  1.5332183905445075e-07 -2.3092447137511080e-08 0.0000000000000000e+00  -1.3044097778863949e-06 -2.0695108162716554e-08 0.0000000000000000e+00  3.4469095179342096e-07 -1.1807751299581495e-08 0.0000000000000000e+00  -8.2676117081990040e-07 -2.1361188702311031e-08 0.0000000000000000e+00  5.9910258602910010e-07 -1.2510152487572873e-08 0.0000000000000000e+00  7.2251539410634076e-07 -2.8532663148041970e-08 0.0000000000000000e+00  -4.2584061315084101e-07 -2.1925706042962626e-08 0.0000000000000000e+00  9.0326549773427432e-07 -6.2265827663872919e-09 0.0000000000000000e+00  1.8189953239636216e-07 -2.3626569964444732e-08 0.0000000000000000e+00  8.1536840592077099e-07 -7.1185490402978978e-09 0.0000000000000000e+00  9.1861568254463182e-07 -2.4627106915618284e-08 0.0000000000000000e+00  4.0448970021864225e-07 -2.4123721412751289e-08 0.0000000000000000e+00  -9.2422504331149920e-08 -2.2904641010681466e-08 0.0000000000000000e+00  9.0269575839727923e-07 -2.4804712163650644e-08 0.0000000000000000e+00  5.8160484158070022e-07 -2.4588164112825435e-08 0.0000000000000000e+00  8.5699339584748048e-07 -7.8456128025555450e-09 0.0000000000000000e+00  7.1581752419428186e-07 -4.0824368930073159e-08 0.0000000000000000e+00  7.9925972528434973e-07 -2.4514405230997615e-08 0.0000000000000000e+00  8.6639454045449424e-07 -2.7507797436854948e-08 0.0000000000000000e+00  -2.3838624904110958e-06 -1.7364033467377844e-08 0.0000000000000000e+00  4.7458939703523339e-07 -3.2823804277737121e-08 0.0000000000000000e+00  -3.3120887199147332e-06 2.5840061822146825e-07 0.0000000000000000e+00  3.4542541146136976e-08 5.4124736003120825e-07 0.0000000000000000e+00  -1.0557282460210558e-06 2.8061186702854334e-07 0.0000000000000000e+00  -1.5754616541507300e-06 2.6693018667242728e-07 0.0000000000000000e+00  2.5636790656570317e-07 -5.6399290107035678e-07 0.0000000000000000e+00  6.6216441360043748e-07 -4.5334456094700441e-07 0.0000000000000000e+00  5.1199676993721840e-08 3.1450156678727634e-07 0.0000000000000000e+00  -6.1768901724458786e-07 2.9348824952828859e-07 0.0000000000000000e+00  9.1390782873277177e-07 -4.2230412843156287e-07 0.0000000000000000e+00  2.9879918888011458e-07 3.2372784473345860e-07 0.0000000000000000e+00  7.7350509544285682e-07 -4.4310587581683661e-07 0.0000000000000000e+00  9.1411997107703530e-07 -4.1548298975602281e-07 0.0000000000000000e+00  4.9790289459494170e-07 3.3207425671584693e-07 0.0000000000000000e+00  -2.5167248843671854e-07 3.0464953707901550e-07 0.0000000000000000e+00  8.8219335273823731e-07 -4.9274647693170288e-07 0.0000000000000000e+00  6.5424070257069773e-07 3.3982882690955390e-07 0.0000000000000000e+00  -1.2799529012892127e-07 -4.3521065637757535e-07 0.0000000000000000e+00  -1.3372770322075044e-07 3.9901239321179320e-07 0.0000000000000000e+00  -4.0790924432195800e-06 -2.1296644958568296e-07 0.0000000000000000e+00  4.2283551850571106e-08 -6.3859059230575579e-07 0.0000000000000000e+00  7.6055044709