<?xml version="1.0"?>
<VTKFile type="UnstructuredGrid"  version="0.1"  >
<UnstructuredGrid>
<Piece  NumberOfPoints="1419" NumberOfCells="2698">
<Points>
<DataArray  type="Float64"  NumberOfComponents="3"  format="ascii">0 0 0  0 0.41 0  2.5 0 0  2.5 0.41 0  0.5999999986726809 0.1900000003952844 0  0.5999999986750549 0.2099999995816891 0  0.25 0.2 0  0.15 0.2 0  0.2489897948556636 0.21 0  0.2489897948556636 0.19 0  0.5999999986824497 0.1999999999886789 0  0 0.3807142857143437 0  0 0.3514285714286952 0  0 0.3221428571430699 0  0 0.29285714285744 0  0 0.2635714285718054 0  0 0.2342857142861561 0  0 0.2050000000005308 0  0 0.175714285714732 0  0 0.1464285714289574 0  0 0.1171428571431897 0  0 0.08785714285737878 0  0 0.05857142857161107 0  0 0.02928571428580012 0  0.03015443760436003 0 0  0.06140001986583606 0 0  0.09377624077125973 0 0  0.1273239957535082 0 0  0.1620856860351972 0 0  0.1981052433264291 0 0  0.235428184091502 0 0  0.2741016576309132 0 0  0.3141745521465447 0 0  0.3556974926295285 0 0  0.3987229542472677 0 0  0.4433053055141081 0 0  0.4895008759286886 0 0  0.5373680609405097 0 0  0.5869673343216626 0 0  0.6383613676634521 0 0  0.6916151138468254 0 0  0.7467958595648856 0 0  0.8039733463919316 0 0  0.8632198139502143 0 0  0.9246101326867038 0 0  0.9882218810934433 0 0  1.054135445558498 0 0  1.122434100542598 0 0  1.193204177141305 0 0  1.266535089879536 0 0  1.342519516046404 0 0  1.421253448503939 0 0  1.502836389106271 0 0  1.587371439758838 0 0  1.674965418777374 0 0  1.765729001825544 0 0  1.859776908880082 0 0  1.957227977487062 0 0  2.058205329869943 0 0  2.162836591189951 0 0  2.271253957290865 0 0  2.383594446803425 0 0  2.5 0.1024999999997612 0  2.5 0.2049999999994743 0  2.5 0.3074999999997183 0  2.383594446803656 0.41 0  2.271253957291315 0.41 0  2.162836591190598 0.41 0  2.058205329870775 0.41 0  1.957227977488067 0.41 0  1.859776908881246 0.41 0  1.765729001826854 0.41 0  1.674965418778818 0.41 0  1.58737143976041 0.41 0  1.502836389107956 0.41 0  1.421253448505726 0.41 0  1.342519516048286 0.41 0  1.266535089881505 0.41 0  1.193204177143353 0.41 0  1.122434100544716 0.41 0  1.05413544556068 0.41 0  0.9882218810956305 0.41 0  0.9246101326886647 0.41 0  0.8632198139519631 0.41 0  0.8039733463934788 0.41 0  0.7467958595662458 0.41 0  0.6916151138480078 0.41 0  0.6383613676644679 0.41 0  0.5869673343225223 0.41 0  0.5373680609412221 0.41 0  0.4895008759292634 0.41 0  0.4433053055145528 0.41 0  0.3987229542475914 0.41 0  0.3556974926297398 0.41 0  0.3141745521466497 0.41 0  0.2741016576310038 0.41 0  0.2354281840915826 0.41 0  0.1981052433265003 0.41 0  0.1620856860352591 0.41 0  0.1273239957535623 0.41 0  0.09377624077128965 0.41 0  0.06140001986584975 0.41 0  0.03015443760436654 0.41 0  0.2497468076502589 0.2050254481002335 0  0.2497468076502614 0.1949745518997913 0  0.2469965252529372 0.1829317073451959 0  0.2439893735792749 0.1762316384219906 0  0.2400332147834255 0.1700443375285386 0  0.2352133972704371 0.1645032867342007 0  0.2296339016332438 0.1597280261969788 0  0.2234150974217223 0.1558215752574715 0  0.2166911463437691 0.1528682099456123 0  0.2096071079204251 0.1509316448471593 0  0.2023158100364996 0.1500536585536553 0  0.194974551899914 0.1502531923497262 0  0.1877417105387872 0.1515259415822739 0  0.1807733240461124 0.153844448527136 0  0.1742197252835808 0.15715869474974 0  0.1682222986673531 0.1613971801805478 0  0.162910430003803 0.1664684656256651 0  0.1583987151779087 0.1722631454351573 0  0.1547844879126891 0.178656207771761 0  0.1521457199348551 0.1855097315605723 0  0.1505393388476355 0.1926758619366523 0  0.1505393388476328 0.2073241380633295 0  0.1521457199348437 0.2144902684393899 0  0.1547844879126531 0.221343792228163 0  0.1583987151778488 0.2277368545647528 0  0.1629104300036858 0.2335315343742052 0  0.1682222986671726 0.2386028198193036 0  0.1742197252833576 0.2428413052501257 0  0.1807733240458683 0.2461555514727623 0  0.1877417105384929 0.2484740584176516 0  0.1949745518995776 0.2497468076502398 0  0.202315810036185 0.2499463414463592 0  0.2096071079201568 0.2490683551528932 0  0.2166911463435495 0.2471317900544655 0  0.2234150974215506 0.2441784247426195 0  0.2296339016331197 0.2402719738031125 0  0.2352133972703547 0.2354967132658811 0  0.2400332147833751 0.2299556624715287 0  0.2439893735792577 0.2237683615780412 0  0.246996525252926 0.2170682926548348 0  0.2564580972045186 0.2099999988775675 0  0.263926399407696 0.2099999988542589 0  0.2713947017156462 0.2099999988833326 0  0.2788630040306816 0.2099999989145912 0  0.2863313063392318 0.2099999989383355 0  0.2937996086353321 0.2099999989631326 0  0.3012679109224071 0.2099999989876394 0  0.3087362131975492 0.2099999990107177 0  0.3162045154658302 0.2099999990333861 0  0.3236728177262345 0.2099999990522838 0  0.3311411199803862 0.2099999990731918 0  0.338609422228783 0.2099999990901404 0  0.3460777244718038 0.2099999991079773 0  0.3535460267115757 0.209999999124636 0  0.3610143289461152 0.2099999991401368 0  0.3684826311787162 0.2099999991554265 0  0.3759509334083168 0.2099999991686021 0  0.3834192356356869 0.2099999991832265 0  0.3908875378611038 0.2099999991951876 0  0.3983558400847324 0.2099999992085589 0  0.4058241423069646 0.2099999992199542 0  0.4132924445275379 0.2099999992318938 0  0.420760746747584 0.2099999992434791 0  0.4282290489652036 0.2099999992542964 0  0.4356973511822263 0.2099999992651775 0  0.4431656533977291 0.2099999992752269 0  0.450633955611802 0.209999999285867 0  0.4581022578243541 0.2099999992954841 0  0.4655705600349901 0.2099999993058889 0  0.47303886224363 0.2099999993151524 0  0.480507164449852 0.2099999993254656 0  0.4879754666531269 0.2099999993347065 0  0.4954437688534067 0.2099999993451384 0  0.502912071049632 0.2099999993550575 0  0.5103803732409203 0.2099999993660527 0  0.5178486754269248 0.2099999993762463 0  0.5253169776065402 0.2099999993881118 0  0.5327852797788367 0.209999999399606 0  0.5402535819419739 0.2099999994136927 0  0.547721884094561 0.2099999994274198 0  0.5551901862348407 0.2099999994435856 0  0.5626584883614779 0.2099999994619607 0  0.5701267904695408 0.2099999994811272 0  0.5775950925587958 0.209999999503698 0  0.5850633946255827 0.2099999995280491 0  0.5925316966671291 0.2099999995600909 0  0.5999999986766639 0.204999999782098 0  0.5999999986761603 0.1950000001956608 0  0.5925316966656925 0.1900000004182936 0  0.5850633946252947 0.1900000004513785 0  0.5775950925592953 0.1900000004757857 0  0.5701267904701323 0.1900000004986664 0  0.5626584883621989 0.190000000517428 0  0.5551901862357221 0.1900000005349544 0  0.5477218840956425 0.1900000005506468 0  0.5402535819429209 0.190000000563199 0  0.5327852797799528 0.190000000577004 0  0.5253169776078986 0.1900000005878255 0  0.5178486754282162 0.1900000006000628 0  0.5103803732420489 0.1900000006096315 0  0.5029120710504801 0.1900000006205572 0  0.4954437688543585 0.190000000629304 0  0.487975466654354 0.1900000006396622 0  0.4805071644510814 0.1900000006482788 0  0.4730388622448791 0.1900000006586386 0  0.4655705600362652 0.1900000006672926 0  0.4581022578255307 0.1900000006776861 0  0.4506339556130925 0.1900000006864737 0  0.4431656533990428 0.190000000697238 0  0.4356973511836287 0.1900000007066425 0  0.4282290489665364 0.1900000007177055 0  0.4207607467488407 0.1900000007282862 0  0.4132924445287257 0.1900000007398215 0  0.4058241423079837 0.1900000007513494 0  0.3983558400858114 0.1900000007627634 0  0.3908875378621213 0.1900000007758512 0  0.3834192356366768 0.1900000007883241 0  0.375950933409121 0.1900000008025395 0  0.3684826311794062 0.1900000008160179 0  0.3610143289469744 0.1900000008309172 0  0.3535460267125322 0.1900000008462767 0  0.3460777244728357 0.1900000008627724 0  0.3386094222297541 0.1900000008800826 0  0.3311411199815698 0.1900000008969168 0  0.3236728177277223 0.1900000009164549 0  0.3162045154674965 0.1900000009347207 0  0.3087362131995561 0.1900000009554904 0  0.3012679109239758 0.1900000009766206 0  0.2937996086362067 0.1900000009992943 0  0.2863313063381787 0.1900000010227629 0  0.2788630040270611 0.190000001047039 0  0.271394701709308 0.1900000010823358 0  0.2639263993994382 0.1900000011191559 0  0.2564580971932648 0.1900000011039927 0  0.2607803159392036 0.2000727136103538 0  0.5887803764361492 0.2001272386827149 0  0.5745072397155992 0.2002044434817187 0  0.5511891427268953 0.2001122609908378 0  0.2751288528791987 0.1999999999814457 0  0.5365194308671801 0.1999999999884615 0  0.2894621226342491 0.1998691686329168 0  0.5215828265229613 0.1999999999880894 0  0.3127789821397013 0.1998657885405568 0  0.3274069688630249 0.1999999999849008 0  0.5066462221509271 0.1999999999877984 0  0.3650630751963797 0.1998660178044941 0  0.4767730133523523 0.1999999999868903 0  0.341740238498609 0.199869168635885 0  0.3796850845287851 0.1999999999858268 0  0.46183640893545 0.1999999999865648 0  0.4917096177588351 0.1999999999872543 0  0.3946216889792663 0.1999999999857548 0  0.446899804510819 0.1999999999861807 0  0.4089549585649034 0.1998691686348621 0  0.4322718178746728 0.200127451242533 0  0.4201487172487128 0.1999966198910732 0  0.3528922718660635 0.2000185703372009 0  0.5633122432099029 0.1999814296374966 0  0.3006558814225847 0.1999966198871407 0  0.5815926490065707 0.1966545284637542 0  0.2677053790354618 0.1964246483069266 0  0.5290511286989399 0.1970915828470619 0  0.5439877330252129 0.1970915828400565 0  0.2825131259722199 0.2035478992041318 0  0.3199386666056168 0.2029084170247172 0  0.4842413155569253 0.1970915828640576 0  0.5141145243396775 0.1970915828533445 0  0.3722167823001444 0.2029084170603346 0  0.4693047111448307 0.197091582869329 0  0.3348752711130004 0.2029084170366937 0  0.3871533867545654 0.2029084170682929 0  0.4543681067237725 0.1970915828746393 0  0.499177919956775 0.1970915828588711 0  0.4020059619783447 0.2035478993104959 0  0.4394315022959577 0.1970915828802146 0  0.2550657453719872 0.2034088122162064 0  0.2548908497503865 0.1966940314575051 0  0.5946539498656783 0.2024
[...]
<PointData  Vectors="f_44-0"> 
<DataArray  type="Float64"  Name="f_44-0"  NumberOfComponents="3" format="ascii">0.0000000000000000e+00 0.0000000000000000e+00 0.0000000000000000e+00  0.0000000000000000e+00 0.0000000000000000e+00 0.0000000000000000e+00  0.0000000000000000e+00 0.0000000000000000e+00 0.0000000000000000e+00  0.0000000000000000e+00 0.0000000000000000e+00 0.0000000000000000e+00  -1.1286641884903417e-06 3.0703570344244084e-07 0.0000000000000000e+00  -1.1258334330484674e-06 -3.2567748693556057e-07 0.0000000000000000e+00  0.0000000000000000e+00 0.0000000000000000e+00 0.0000000000000000e+00  0.0000000000000000e+00 0.0000000000000000e+00 0.0000000000000000e+00  0.0000000000000000e+00 0.0000000000000000e+00 0.0000000000000000e+00  0.0000000000000000e+00 0.0000000000000000e+00 0.0000000000000000e+00  -1.1232730488522932e-06 -8.5958918416522297e-09 0.0000000000000000e+00  4.4186539975071615e-07 0.0000000000000000e+00 0.0000000000000000e+00  8.1575150723214552e-07 0.0000000000000000e+00 0.0000000000000000e+00  1.1216583224442002e-06 0.0000000000000000e+00 0.0000000000000000e+00  1.3595858453872347e-06 0.0000000000000000e+00 0.0000000000000000e+00  1.5295340760612175e-06 0.0000000000000000e+00 0.0000000000000000e+00  1.6315030144661395e-06 0.0000000000000000e+00 0.0000000000000000e+00  1.6654926606018974e-06 0.0000000000000000e+00 0.0000000000000000e+00  1.6315030144682007e-06 0.0000000000000000e+00 0.0000000000000000e+00  1.5295340760647589e-06 0.0000000000000000e+00 0.0000000000000000e+00  1.3595858453916203e-06 0.0000000000000000e+00 0.0000000000000000e+00  1.1216583224483665e-06 0.0000000000000000e+00 0.0000000000000000e+00  8.1575150723570073e-07 0.0000000000000000e+00 0.0000000000000000e+00  4.4186539975271928e-07 0.0000000000000000e+00 0.0000000000000000e+00  0.0000000000000000e+00 0.0000000000000000e+00 0.0000000000000000e+00  0.0000000000000000e+00 0.0000000000000000e+00 0.0000000000000000e+00  0.0000000000000000e+00 0.0000000000000000e+00 0.0000000000000000e+00  0.0000000000000000e+00 0.0000000000000000e+00 0.0000000000000000e+00  0.0000000000000000e+00 0.0000000000000000e+00 0.0000000000000000e+00  0.0000000000000000e+00 0.0000000000000000e+00 0.0000000000000000e+00  0.0000000000000000e+00 0.0000000000000000e+00 0.0000000000000000e+00  0.0000000000000000e+00 0.0000000000000000e+00 0.0000000000000000e+00  0.0000000000000000e+00 0.0000000000000000e+00 0.0000000000000000e+00  0.0000000000000000e+00 0.0000000000000000e+00 0.0000000000000000e+00  0.0000000000000000e+00 0.0000000000000000e+00 0.0000000000000000e+00  0.0000000000000000e+00 0.0000000000000000e+00 0.0000000000000000e+00  0.0000000000000000e+00 0.0000000000000000e+00 0.0000000000000000e+00  0.0000000000000000e+00 0.0000000000000000e+00 0.0000000000000000e+00  0.0000000000000000e+00 0.0000000000000000e+00 0.0000000000000000e+00  0.0000000000000000e+00 0.0000000000000000e+00 0.0000000000000000e+00  0.0000000000000000e+00 0.0000000000000000e+00 0.0000000000000000e+00  0.0000000000000000e+00 0.0000000000000000e+00 0.0000000000000000e+00  0.0000000000000000e+00 0.0000000000000000e+00 0.0000000000000000e+00  0.0000000000000000e+00 0.0000000000000000e+00 0.0000000000000000e+00  0.0000000000000000e+00 0.0000000000000000e+00 0.0000000000000000e+00  0.0000000000000000e+00 0.0000000000000000e+00 0.0000000000000000e+00  0.0000000000000000e+00 0.0000000000000000e+00 0.0000000000000000e+00  0.0000000000000000e+00 0.0000000000000000e+00 0.0000000000000000e+00  0.0000000000000000e+00 0.0000000000000000e+00 0.0000000000000000e+00  0.0000000000000000e+00 0.0000000000000000e+00 0.0000000000000000e+00  0.0000000000000000e+00 0.0000000000000000e+00 0.0000000000000000e+00  0.0000000000000000e+00 0.0000000000000000e+00 0.0000000000000000e+00  0.0000000000000000e+00 0.0000000000000000e+00 0.0000000000000000e+00  0.0000000000000000e+00 0.0000000000000000e+00 0.0000000000000000e+00  0.0000000000000000e+00 0.0000000000000000e+00 0.0000000000000000e+00  0.0000000000000000e+00 0.0000000000000000e+00 0.0000000000000000e+00  0.0000000000000000e+00 0.0000000000000000e+00 0.0000000000000000e+00  0.0000000000000000e+00 0.0000000000000000e+00 0.0000000000000000e+00  0.0000000000000000e+00 0.0000000000000000e+00 0.0000000000000000e+00  0.0000000000000000e+00 0.0000000000000000e+00 0.0000000000000000e+00  0.0000000000000000e+00 0.0000000000000000e+00 0.0000000000000000e+00  0.0000000000000000e+00 0.0000000000000000e+00 0.0000000000000000e+00  1.1783185939988281e-07 -2.5898758988615582e-10 0.0000000000000000e+00  1.2185715416612681e-07 1.8940997810752557e-10 0.0000000000000000e+00  1.1798234484182578e-07 5.0978870125108571e-10 0.0000000000000000e+00  0.0000000000000000e+00 0.0000000000000000e+00 0.0000000000000000e+00  0.0000000000000000e+00 0.0000000000000000e+00 0.0000000000000000e+00  0.0000000000000000e+00 0.0000000000000000e+00 0.0000000000000000e+00  0.0000000000000000e+00 0.0000000000000000e+00 0.0000000000000000e+00  0.0000000000000000e+00 0.0000000000000000e+00 0.0000000000000000e+00  0.0000000000000000e+00 0.0000000000000000e+00 0.0000000000000000e+00  0.0000000000000000e+00 0.0000000000000000e+00 0.0000000000000000e+00  0.0000000000000000e+00 0.0000000000000000e+00 0.0000000000000000e+00  0.0000000000000000e+00 0.0000000000000000e+00 0.0000000000000000e+00  0.0000000000000000e+00 0.0000000000000000e+00 0.0000000000000000e+00  0.0000000000000000e+00 0.0000000000000000e+00 0.0000000000000000e+00  0.0000000000000000e+00 0.0000000000000000e+00 0.0000000000000000e+00  0.0000000000000000e+00 0.0000000000000000e+00 0.0000000000000000e+00  0.0000000000000000e+00 0.0000000000000000e+00 0.0000000000000000e+00  0.0000000000000000e+00 0.0000000000000000e+00 0.0000000000000000e+00  0.0000000000000000e+00 0.0000000000000000e+00 0.0000000000000000e+00  0.0000000000000000e+00 0.0000000000000000e+00 0.0000000000000000e+00  0.0000000000000000e+00 0.0000000000000000e+00 0.0000000000000000e+00  0.0000000000000000e+00 0.0000000000000000e+00 0.0000000000000000e+00  0.0000000000000000e+00 0.0000000000000000e+00 0.0000000000000000e+00  0.0000000000000000e+00 0.0000000000000000e+00 0.0000000000000000e+00  0.0000000000000000e+00 0.0000000000000000e+00 0.0000000000000000e+00  0.0000000000000000e+00 0.0000000000000000e+00 0.0000000000000000e+00  0.0000000000000000e+00 0.0000000000000000e+00 0.0000000000000000e+00  0.0000000000000000e+00 0.0000000000000000e+00 0.0000000000000000e+00  0.0000000000000000e+00 0.0000000000000000e+00 0.0000000000000000e+00  0.0000000000000000e+00 0.0000000000000000e+00 0.0000000000000000e+00  0.0000000000000000e+00 0.0000000000000000e+00 0.0000000000000000e+00  0.0000000000000000e+00 0.0000000000000000e+00 0.0000000000000000e+00  0.0000000000000000e+00 0.0000000000000000e+00 0.0000000000000000e+00  0.0000000000000000e+00 0.0000000000000000e+00 0.0000000000000000e+00  0.0000000000000000e+00 0.0000000000000000e+00 0.0000000000000000e+00  0.0000000000000000e+00 0.0000000000000000e+00 0.0000000000000000e+00  0.0000000000000000e+00 0.0000000000000000e+00 0.0000000000000000e+00  0.0000000000000000e+00 0.0000000000000000e+00 0.0000000000000000e+00  0.0000000000000000e+00 0.0000000000000000e+00 0.0000000000000000e+00  0.0000000000000000e+00 0.0000000000000000e+00 0.0000000000000000e+00  0.0000000000000000e+00 0.0000000000000000e+00 0.0000000000000000e+00  0.0000000000000000e+00 0.0000000000000000e+00 0.0000000000000000e+00  0.0000000000000000e+00 0.0000000000000000e+00 0.0000000000000000e+00  0.0000000000000000e+00 0.0000000000000000e+00 0.0000000000000000e+00  0.0000000000000000e+00 0.0000000000000000e+00 0.0000000000000000e+00  0.0000000000000000e+00 0.0000000000000000e+00 0.0000000000000000e+00  0.0000000000000000e+00 0.0000000000000000e+00 0.0000000000000000e+00  0.0000000000000000e+00 0.0000000000000000e+00 0.0000000000000000e+00  0.0000000000000000e+00 0.0000000000000000e+00 0.0000000000000000e+00  0.0000000000000000e+00 0.0000000000000000e+00 0.0000000000000000e+00  0.0000000000000000e+00 0.0000000000000000e+00 0.0000000000000000e+00  0.0000000000000000e+00 0.0000000000000000e+00 0.0000000000000000e+00  0.0000000000000000e+00 0.0000000000000000e+00 0.0000000000000000e+00  0.0000000000000000e+00 0.0000000000000000e+00 0.0000000000000000e+00  0.0000000000000000e+00 0.0000000000000000e+00 0.0000000000000000e+00  0.0000000000000000e+00 0.0000000000000000e+00 0.0000000000000000e+00  0.0000000000000000e+00 0.0000000000000000e+00 0.0000000000000000e+00  0.0000000000000000e+00 0.0000000000000000e+00 0.0000000000000000e+00  0.0000000000000000e+00 0.0000000000000000e+00 0.0000000000000000e+00  0.0000000000000000e+00 0.0000000000000000e+00 0.0000000000000000e+00  0.0000000000000000e+00 0.0000000000000000e+00 0.0000000000000000e+00  0.0000000000000000e+00 0.0000000000000000e+00 0.0000000000000000e+00  0.0000000000000000e+00 0.0000000000000000e+00 0.0000000000000000e+00  0.0000000000000000e+00 0.0000000000000000e+00 0.0000000000000000e+00  0.0000000000000000e+00 0.0000000000000000e+00 0.0000000000000000e+00  0.0000000000000000e+00 0.0000000000000000e+00 0.0000000000000000e+00  0.0000000000000000e+00 0.0000000000000000e+00 0.0000000000000000e+00  0.0000000000000000e+00 0.0000000000000000e+00 0.0000000000000000e+00  0.0000000000000000e+00 0.0000000000000000e+00 0.0000000000000000e+00  0.0000000000000000e+00 0.0000000000000000e+00 0.0000000000000000e+00  0.0000000000000000e+00 0.0000000000000000e+00 0.0000000000000000e+00  0.0000000000000000e+00 0.0000000000000000e+00 0.0000000000000000e+00  0.0000000000000000e+00 0.0000000000000000e+00 0.0000000000000000e+00  0.0000000000000000e+00 0.0000000000000000e+00 0.0000000000000000e+00  0.0000000000000000e+00 0.0000000000000000e+00 0.0000000000000000e+00  0.0000000000000000e+00 0.0000000000000000e+00 0.0000000000000000e+00  0.0000000000000000e+00 0.0000000000000000e+00 0.0000000000000000e+00  0.0000000000000000e+00 0.0000000000000000e+00 0.0000000000000000e+00  0.0000000000000000e+00 0.0000000000000000e+00 0.0000000000000000e+00  0.0000000000000000e+00 0.0000000000000000e+00 0.0000000000000000e+00  0.0000000000000000e+00 0.0000000000000000e+00 0.0000000000000000e+00  6.0378997443489143e-08 -6.3176140929895214e-07 0.0000000000000000e+00  4.7018316770456384e-08 -7.4035492802635735e-07 0.0000000000000000e+00  9.0308890643981696e-08 -7.3730408114069641e-07 0.0000000000000000e+00  1.4995540107207350e-07 -7.2847294825531872e-07 0.0000000000000000e+00  2.0338473178502219e-07 -7.1804942510946575e-07 0.0000000000000000e+00  2.5092042982916716e-07 -7.0781188029408912e-07 0.0000000000000000e+00  2.9079991974071719e-07 -6.9725324140199610e-07 0.0000000000000000e+00  3.2567905649580868e-07 -6.8592074180909988e-07 0.0000000000000000e+00  3.5371795503150742e-07 -6.7557742525243180e-07 0.0000000000000000e+00  3.7644057788176345e-07 -6.6465826806744117e-07 0.0000000000000000e+00  3.9407402796374099e-07 -6.5555981348546416e-07 0.0000000000000000e+00  4.0700391895812593e-07 -6.4569138684182709e-07 0.0000000000000000e+00  4.1596483042129034e-07 -6.3680293089235231e-07 0.0000000000000000e+00  4.2055220372526846e-07 -6.2888946810079813e-07 0.0000000000000000e+00  4.2277727429599417e-07 -6.2055178498693933e-07 0.0000000000000000e+00  4.2169102621733190e-07 -6.1335845004138536e-07 0.0000000000000000e+00  4.1824692573400476e-07 -6.0545215067329614e-07 0.0000000000000000e+00  4.1261163512163254e-07 -5.9893114740996057e-07 0.0000000000000000e+00  4.0500702811152826e-07 -5.9162937390143810e-07 0.0000000000000000e+00  3.9577786870904758e-07 -5.8539152294704222e-07 0.0000000000000000e+00  3.8486918885654735e-07 -5.7859550716434521e-07 0.0000000000000000e+00  3.7260433651830194e-07 -5.7222898269573878e-07 0.0000000000000000e+00  3.5856809206926361e-07 -5.6640921607148107e-07 0.0000000000000000e+00  3.4374008984157566e-07 -5.5999081207446177e-07 0.0000000000000000e+00  3.2728305030911102e-07 -5.5413759743095038e-07 0.0000000000000000e+00  3.0939968576965773e-07 -5.4785623111632126e-07 0.0000000000000000e+00  2.9001585796098625e-07 -5.4212259717230840e-07 0.0000000000000000e+00  2.6904234349751471e-07 -5.3585506643820305e-07 0.0000000000000000e+00  2.4621155158327540e-07 -5.2991208457549070e-07 0.0000000000000000e+00  2.2137986035092044e-07 -5.2361160550275705e-07 0.0000000000000000e+00  1.9421957693631541e-07 -5.1736518519109967e-07 0.0000000000000000e+00  1.6431952318499845e-07 -5.1073229097213163e-07 0.0000000000000000e+00  1.3152614999585859e-07 -5.0403096491573266e-07 0.0000000000000000e+00  9.4982474180114749e-08 -4.9649604930305155e-07 0.0000000000000000e+00  5.4090422126132251e-08 -4.8900431462673511e-07 0.0000000000000000e+00  8.4315519081088583e-09 -4.8089276734273086e-07 0.0000000000000000e+00  -4.2763915744190509e-08 -4.7234530662866445e-07 0.0000000000000000e+00  -1.0041542048406561e-07 -4.6283253262258970e-07 0.0000000000000000e+00  -1.6569091128407001e-07 -4.5227177383571493e-07 0.0000000000000000e+00  -2.3989738322399337e-07 -4.4070054298647938e-07 0.0000000000000000e+00  -3.2384312728745528e-07 -4.2786046724845019e-07 0.0000000000000000e+00  -4.1973637452983245e-07 -4.1386400670317732e-07 0.0000000000000000e+00  -5.2829916791491346e-07 -3.9815544366689699e-07 0.0000000000000000e+00  -6.5170068359313226e-07 -3.8078996641237507e-07 0.0000000000000000e+00  -7.9164741746083995e-07 -3.6105242863193257e-07 0.0000000000000000e+00  -9.4947711055219767e-07 -3.3933132578122637e-07 0.0000000000000000e+00  -1.1248408392094063e-06 -1.6804678493824760e-07 0.0000000000000000e+00  -1.1255028558493775e-06 1.5021208781259134e-07 0.0000000000000000e+00  -9.5034060693460668e-07 3.2298959680808497e-07 0.0000000000000000e+00  -7.9221220052964378e-07 3.4510640319142788e-07 0.0000000000000000e+00  -6.5176439179873243e-07 3.6553657581617077e-07 0.0000000000000000e+00  -5.2798176983614720e-07 3.8287687237936036e-07 0.0000000000000000e+00  -4.1935914956481163e-07 3.9845669270284692e-07 0.0000000000000000e+00  -3.2336906602365553e-07 4.1178250142463982e-07 0.0000000000000000e+00  -2.3938106647632624e-07 4.2426141923814736e-07 0.0000000000000000e+00  -1.6528971948321658e-07 4.3525756295621464e-07 0.0000000000000000e+00  -9.9950176310126153e-08 4.4523278924225802e-07 0.0000000000000000e+00  -4.2136343048447149e-08 4.5464576096597981e-07 0.0000000000000000e+00  8.9813146405813209e-09 4.6313297505581146e-07 0.0000000000000000e+00  5.4483524699124021e-08 4.7115513589673157e-07 0.0000000000000000e+00  9.5121194655406405e-08 4.7828606689916370e-07 0.0000000000000000e+00  1.3168921630588432e-07 4.8527154208932220e-07 0.0000000000000000e+00  1.6462678158901401e-07 4.9159509257519929e-07 0.0000000000000000e+00  1.9453828882475283e-07 4.9811488493240777e-07 0.0000000000000000e+00  2.2166418199477650e-07 5.0405263146948578e-07 0.0000000000000000e+00  2.4648316495539129e-07 5.1029046575934179e-07 0.0000000000000000e+00  2.6920832181786183e-07 5.1587333640923090e-07 0.0000000000000000e+00  2.9022012924535887e-07 5.2193525163959384e-07 0.0000000000000000e+00  3.0956805949936704e-07 5.2744488423277905e-07 0.0000000000000000e+00  3.2746138451938127e-07 5.3362467337644812e-07 0.0000000000000000e+00  3.4395417764444704e-07 5.3936266126075311e-07 0.0000000000000000e+00  3.5875528411364102e-07 5.4558064181332441e-07 0.0000000000000000e+00  3.7274862222363679e-07 5.5139664326193872e-07 0.0000000000000000e+00  3.8501383652378942e-07 5.5757138716658664e-07 0.0000000000000000e+00  3.9592701760428300e-07 5.6426001998955891e-07 0.0000000000000000e+00  4.0524831187134874e-07 5.7055361047148941e-07 0.0000000000000000e+00  4.1283620684775280e-07 5.7777901385045040e-07 0.0000000000000000e+00  4.1843839571251441e-07 5.8451474780545633e-07 0.0000000000000000e+00  4.2188707635632088e-07 5.9217717837558090e-07 0.0000000000000000e+00  4.2293940382015226e-07 5.9948433745766204e-07 0.0000000000000000e+00  4.2080385874866921e-07 6.0771705270620148e-07 0.0000000000000000e+00  4.1633134719254137e-07 6.1549707795839106e-07 0.0000000000000000e+00  4.0765877384832444e-07 6.2413085803911705e-07 0.0000000000000000e+00  3.9492761082376534e-07 6.3330010441415961e-07 0.0000000000000000e+00  3.7759788789076675e-07 6.4195898862267874e-07 0.0000000000000000e+00  3.5510085428269462e-07 6.5156955284438059e-07 0.0000000000000000e+00  3.2698555526611108e-07 6.6080538535419566e-07 0.0000000000000000e+00  2.9181141596151550e-07 6.7066756438451639e-07 0.0000000000000000e+00  2.5106397182819396e-07 6.7998492979709434e-07 0.0000000000000000e+00  2.0220534378381719e-07 6.8981568547527091e-07 0.0000000000000000e+00  1.4678506916821514e-07 7.0143623399368252e-07 0.0000000000000000e+00  8.4835591247216841e-08 7.1395464177939637e-07 0.0000000000000000e+00  4.0214389673004774e-08 7.2335609856505485e-07 0.0000000000000000e+00  5.6385479035074075e-08 6.2379558709218010e-07 0.0000000000000000e+00  -4.2186474080748362e-08 -1.2340118868985123e-08 0.0000000000000000e+00  -8.6285280058661555e-07 -1.2383578055635933e-08 0.0000000000000000e+00  -5.9307892043373652e-07 -1.5342807054799844e-08 0.0000000000000000e+00  -2.7317690865982222e-07 -1.2951435267893282e-08 0.0000000000000000e+00  1.2016570041967273e-07 -1.3119574470784728e-08 0.0000000000000000e+00  -1.2833987716879225e-07 -8.6705715468258568e-09 0.0000000000000000e+00  2.2777226491151639e-07 -5.1843219094962670e-09 0.0000000000000000e+00  -1.2985343706407778e-08 -8.9215335476330324e-09 0.0000000000000000e+00  3.4633142694022133e-07 -3.2982447393943690e-09 0.0000000000000000e+00  3.9032335883187161e-07 -1.1102685724294309e-08 0.0000000000000000e+00  7.8108811580627643e-08 -9.1182060760019788e-09 0.0000000000000000e+00  4.2611644153352055e-07 -2.4364470582584183e-09 0.0000000000000000e+00  2.1096062968486466e-07 -9.7563556718232413e-09 0.0000000000000000e+00  4.1524180005244751e-07 -2.3217419565924670e-09 0.0000000000000000e+00  4.1914063039545537e-07 -1.0485213556846222e-08 0.0000000000000000e+00  2.6071071248219743e-07 -9.9761981752330575e-09 0.0000000000000000e+00  1.5121052311058394e-07 -9.4859162455056451e-09 0.0000000000000000e+00  4.0387899947754871e-07 -1.0480982379220542e-08 0.0000000000000000e+00  3.0278611228181623e-07 -1.0202735321225344e-08 0.0000000000000000e+00  3.8298648309834202e-07 -3.0592732141444292e-09 0.0000000000000000e+00  3.3794679717152185e-07 -1.7260408789951259e-08 0.0000000000000000e+00  3.6278384956399843e-07 -1.0223621104803929e-08 0.0000000000000000e+00  4.2402942146259109e-07 -1.1725206160053556e-08 0.0000000000000000e+00  -4.2353467147935737e-07 -6.9634051796760915e-09 0.0000000000000000e+00  2.9232681801808492e-07 -1.3273228521111505e-08 0.0000000000000000e+00  -7.1940781058127584e-07 1.1366191522285274e-07 0.0000000000000000e+00  4.9609195771925110e-08 2.5658398701603121e-07 0.0000000000000000e+00  -6.7384902327523890e-08 1.2468162860931951e-07 0.0000000000000000e+00  -1.9788976152450656e-07 1.1911775086250428e-07 0.0000000000000000e+00  1.7910048484701647e-07 -2.6647514690416263e-07 0.0000000000000000e+00  3.6974141042976435e-07 -2.0346975468312960e-07 0.0000000000000000e+00  1.8226410432513312e-07 1.3715527158740826e-07 0.0000000000000000e+00  3.4928343210385766e-08 1.2954624427563196e-07 0.0000000000000000e+00  4.2333060038695792e-07 -1.8488042772585685e-07 0.0000000000000000e+00  2.3665769944548387e-07 1.4058307048094554e-07 0.0000000000000000e+00  4.0472349030566682e-07 -1.9724918815173276e-07 0.0000000000000000e+00  4.1198267622841306e-07 -1.8078406582736909e-07 0.0000000000000000e+00  2.8230811595244258e-07 1.4384084640531818e-07 0.0000000000000000e+00  1.1633113844082265e-07 1.3359083480770309e-07 0.0000000000000000e+00  3.9327852420218637e-07 -2.1341030020057931e-07 0.0000000000000000e+00  3.2113202892929728e-07 1.4708706257370673e-07 0.0000000000000000e+00  -7.4301639399119781e-08 -2.0465480981340269e-07 0.0000000000000000e+00  -7.6717548064429893e-08 1.8729361916817024e-07 0.0000000000000000e+00  -9.9464275488210440e-07 -8.7523972569076215e-08 0.0000000000000000e+00  5.2733071362371414e-08 -3.0844370883805136e-07 0.0000000000000000e+00  3.5059581574104736e-07 1.8