<?xml version="1.0"?>
<VTKFile type="UnstructuredGrid"  version="0.1"  >
<UnstructuredGrid>
<Piece  NumberOfPoints="1419" NumberOfCells="2698">
<Points>
<DataArray  type="Float64"  NumberOfComponents="3"  format="ascii">0 0 0  0 0.41 0  2.5 0 0  2.5 0.41 0  0.6000000000946685 0.1899999999686834 0  0.6000000000945086 0.2100000000331566 0  0.25 0.2 0  0.15 0.2 0  0.2489897948556636 0.21 0  0.2489897948556636 0.19 0  0.6000000000938343 0.200000000000896 0  0 0.3807142857143437 0  0 0.3514285714286952 0  0 0.3221428571430699 0  0 0.29285714285744 0  0 0.2635714285718054 0  0 0.2342857142861561 0  0 0.2050000000005308 0  0 0.175714285714732 0  0 0.1464285714289574 0  0 0.1171428571431897 0  0 0.08785714285737878 0  0 0.05857142857161107 0  0 0.02928571428580012 0  0.03015443760436003 0 0  0.06140001986583606 0 0  0.09377624077125973 0 0  0.1273239957535082 0 0  0.1620856860351972 0 0  0.1981052433264291 0 0  0.235428184091502 0 0  0.2741016576309132 0 0  0.3141745521465447 0 0  0.3556974926295285 0 0  0.3987229542472677 0 0  0.4433053055141081 0 0  0.4895008759286886 0 0  0.5373680609405097 0 0  0.5869673343216626 0 0  0.6383613676634521 0 0  0.6916151138468254 0 0  0.7467958595648856 0 0  0.8039733463919316 0 0  0.8632198139502143 0 0  0.9246101326867038 0 0  0.9882218810934433 0 0  1.054135445558498 0 0  1.122434100542598 0 0  1.193204177141305 0 0  1.266535089879536 0 0  1.342519516046404 0 0  1.421253448503939 0 0  1.502836389106271 0 0  1.587371439758838 0 0  1.674965418777374 0 0  1.765729001825544 0 0  1.859776908880082 0 0  1.957227977487062 0 0  2.058205329869943 0 0  2.162836591189951 0 0  2.271253957290865 0 0  2.383594446803425 0 0  2.5 0.1024999999997612 0  2.5 0.2049999999994743 0  2.5 0.3074999999997183 0  2.383594446803656 0.41 0  2.271253957291315 0.41 0  2.162836591190598 0.41 0  2.058205329870775 0.41 0  1.957227977488067 0.41 0  1.859776908881246 0.41 0  1.765729001826854 0.41 0  1.674965418778818 0.41 0  1.58737143976041 0.41 0  1.502836389107956 0.41 0  1.421253448505726 0.41 0  1.342519516048286 0.41 0  1.266535089881505 0.41 0  1.193204177143353 0.41 0  1.122434100544716 0.41 0  1.05413544556068 0.41 0  0.9882218810956305 0.41 0  0.9246101326886647 0.41 0  0.8632198139519631 0.41 0  0.8039733463934788 0.41 0  0.7467958595662458 0.41 0  0.6916151138480078 0.41 0  0.6383613676644679 0.41 0  0.5869673343225223 0.41 0  0.5373680609412221 0.41 0  0.4895008759292634 0.41 0  0.4433053055145528 0.41 0  0.3987229542475914 0.41 0  0.3556974926297398 0.41 0  0.3141745521466497 0.41 0  0.2741016576310038 0.41 0  0.2354281840915826 0.41 0  0.1981052433265003 0.41 0  0.1620856860352591 0.41 0  0.1273239957535623 0.41 0  0.09377624077128965 0.41 0  0.06140001986584975 0.41 0  0.03015443760436654 0.41 0  0.2497468076502589 0.2050254481002335 0  0.2497468076502614 0.1949745518997913 0  0.2469965252529372 0.1829317073451959 0  0.2439893735792749 0.1762316384219906 0  0.2400332147834255 0.1700443375285386 0  0.2352133972704371 0.1645032867342007 0  0.2296339016332438 0.1597280261969788 0  0.2234150974217223 0.1558215752574715 0  0.2166911463437691 0.1528682099456123 0  0.2096071079204251 0.1509316448471593 0  0.2023158100364996 0.1500536585536553 0  0.194974551899914 0.1502531923497262 0  0.1877417105387872 0.1515259415822739 0  0.1807733240461124 0.153844448527136 0  0.1742197252835808 0.15715869474974 0  0.1682222986673531 0.1613971801805478 0  0.162910430003803 0.1664684656256651 0  0.1583987151779087 0.1722631454351573 0  0.1547844879126891 0.178656207771761 0  0.1521457199348551 0.1855097315605723 0  0.1505393388476355 0.1926758619366523 0  0.1505393388476328 0.2073241380633295 0  0.1521457199348437 0.2144902684393899 0  0.1547844879126531 0.221343792228163 0  0.1583987151778488 0.2277368545647528 0  0.1629104300036858 0.2335315343742052 0  0.1682222986671726 0.2386028198193036 0  0.1742197252833576 0.2428413052501257 0  0.1807733240458683 0.2461555514727623 0  0.1877417105384929 0.2484740584176516 0  0.1949745518995776 0.2497468076502398 0  0.202315810036185 0.2499463414463592 0  0.2096071079201568 0.2490683551528932 0  0.2166911463435495 0.2471317900544655 0  0.2234150974215506 0.2441784247426195 0  0.2296339016331197 0.2402719738031125 0  0.2352133972703547 0.2354967132658811 0  0.2400332147833751 0.2299556624715287 0  0.2439893735792577 0.2237683615780412 0  0.246996525252926 0.2170682926548348 0  0.2564580970811076 0.210000000111204 0  0.2639263993216391 0.2100000001107886 0  0.2713947015523905 0.2100000001063616 0  0.2788630037829103 0.2100000001020121 0  0.2863313060143293 0.2100000000987703 0  0.2937996082470413 0.2100000000955688 0  0.3012679104805963 0.2100000000924344 0  0.3087362127153324 0.2100000000896977 0  0.3162045149505837 0.2100000000869563 0  0.3236728171864615 0.2100000000847212 0  0.3311411194228179 0.2100000000822468 0  0.3386094216595671 0.2100000000802494 0  0.3460777238967275 0.210000000078168 0  0.3535460261340445 0.2100000000761667 0  0.3610143283717638 0.2100000000743971 0  0.3684826306095521 0.2100000000725973 0  0.3759509328474855 0.2100000000710622 0  0.3834192350855882 0.2100000000693666 0  0.3908875373237571 0.2100000000679828 0  0.3983558395620634 0.2100000000664512 0  0.4058241418003953 0.2100000000651483 0  0.4132924440388565 0.2100000000638041 0  0.4207607462772736 0.2100000000624732 0  0.428229048515912 0.2100000000613012 0  0.4356973507545642 0.2100000000601017 0  0.4431656529932884 0.2100000000590098 0  0.4506339552321176 0.2100000000578747 0  0.4581022574709902 0.2100000000568643 0  0.4655705597100186 0.2100000000557943 0  0.473038861949115 0.2100000000548628 0  0.4805071641883941 0.2100000000538484 0  0.4879754664278003 0.210000000052966 0  0.4954437686674292 0.2100000000520011 0  0.5029120709073485 0.2100000000511111 0  0.5103803731475588 0.2100000000501564 0  0.5178486753880772 0.2100000000492994 0  0.5253169776290172 0.2100000000483348 0  0.5327852798704854 0.2100000000474303 0  0.5402535821125947 0.2100000000463488 0  0.547721884355435 0.2100000000453164 0  0.5551901865991554 0.2100000000441195 0  0.5626584888439298 0.2100000000427286 0  0.5701267910901726 0.2100000000413265 0  0.5775950933379258 0.2100000000396038 0  0.5850633955875485 0.2100000000377018 0  0.5925316978394428 0.2100000000350936 0  0.6000000000943273 0.2050000000172486 0  0.6000000000943496 0.1949999999845429 0  0.5925316978395813 0.1899999999666566 0  0.5850633955876272 0.1899999999639739 0  0.5775950933380035 0.1899999999620802 0  0.5701267910902487 0.1899999999603451 0  0.562658488844092 0.1899999999589831 0  0.5551901865993143 0.1899999999576647 0  0.5477218843556415 0.1899999999565117 0  0.5402535821128497 0.1899999999555704 0  0.5327852798708228 0.1899999999545149 0  0.5253169776293546 0.1899999999536662 0  0.5178486753884637 0.1899999999526766 0  0.5103803731480034 0.1899999999518769 0  0.5029120709078815 0.1899999999509282 0  0.4954437686680396 0.1899999999501417 0  0.4879754664284264 0.1899999999491791 0  0.4805071641890378 0.1899999999483541 0  0.4730388619497982 0.1899999999473343 0  0.4655705597107525 0.1899999999464617 0  0.4581022574717882 0.1899999999453877 0  0.4506339552329435 0.1899999999444628 0  0.4431656529941537 0.1899999999433097 0  0.4356973507554583 0.1899999999422906 0  0.4282290485168528 0.1899999999410617 0  0.4207607462782193 0.1899999999399163 0  0.4132924440397656 0.1899999999385879 0  0.4058241418012758 0.18999999993729 0  0.3983558395628867 0.1899999999359843 0  0.3908875373245377 0.189999999934484 0  0.383419235086325 0.1899999999330433 0  0.3759509328481895 0.1899999999313999 0  0.3684826306102093 0.1899999999298308 0  0.3610143283723549 0.1899999999280858 0  0.3535460261346072 0.1899999999263304 0  0.3460777238972529 0.1899999999243464 0  0.3386094216600701 0.1899999999223063 0  0.3311411194232451 0.1899999999203025 0  0.3236728171868249 0.1899999999179513 0  0.3162045149508714 0.1899999999157285 0  0.3087362127155339 0.1899999999131479 0  0.3012679104807742 0.1899999999105544 0  0.293799608247202 0.1899999999075804 0  0.2863313060145771 0.1899999999045305 0  0.2788630037833051 0.1899999999013308 0  0.2713947015529617 0.1899999998967779 0  0.2639263993223787 0.1899999998918269 0  0.2564580970821954 0.1899999998907714 0  0.2607803159957835 0.2000727136314916 0  0.5887803774915784 0.2001272386996266 0  0.5745072404181842 0.2002044435034957 0  0.5511891430278515 0.2001122610090791 0  0.2751288526663753 0.2000000000016501 0  0.5365194309913971 0.2000000000008846 0  0.2894621222697742 0.1998691686394415 0  0.5215828265085128 0.2000000000008944 0  0.3127789816275163 0.1998657885440732 0  0.3274069683035304 0.2000000000013742 0  0.5066462220275404 0.2000000000009064 0  0.3650630746166508 0.1998660178077659 0  0.4767730130689956 0.2000000000009443 0  0.3417402379174901 0.1998691686393553 0  0.3796850839657719 0.2000000000013463 0  0.4618364085908085 0.2000000000009555 0  0.4917096175478227 0.2000000000009234 0  0.3946216884421996 0.2000000000013691 0  0.4468998041130496 0.2000000000009745 0  0.4089549580592343 0.1998691686395315 0  0.4322718174311075 0.2001274512676686 0  0.4201487167707325 0.1999966199060064 0  0.3528922712802571 0.200018570354602 0  0.563312243697376 0.1999814296475153 0  0.3006558809736447 0.199996619906291 0  0.5815926498719858 0.1966545283041675 0  0.2677053789315501 0.1964246478759087 0  0.5290511287496951 0.1970915826738059 0  0.5439877332337992 0.1970915826743327 0  0.2825131256738253 0.2035478996343518 0  0.319938666067404 0.2029084173393449 0  0.4842413153083323 0.1970915826723315 0  0.5141145242678563 0.1970915826732878 0  0.3722167817277621 0.2029084173352379 0  0.4693047108298495 0.1970915826718036 0  0.3348752705402203 0.2029084173379729 0  0.3871533862039738 0.2029084173343186 0  0.4543681063519044 0.1970915826712566 0  0.49917791978757 0.1970915826728173 0  0.4020059614574064 0.2035478996218475 0  0.4394315018743135 0.1970915826706513 0  0.2550657455522207 0.2034088125676477 0  0.2548908499325616 0.1966940311320876 0  0.59465395110
[...]
<PointData  Vectors="f_44-0"> 
<DataArray  type="Float64"  Name="f_44-0"  NumberOfComponents="3" format="ascii">0.0000000000000000e+00 0.0000000000000000e+00 0.0000000000000000e+00  0.0000000000000000e+00 0.0000000000000000e+00 0.0000000000000000e+00  0.0000000000000000e+00 0.0000000000000000e+00 0.0000000000000000e+00  0.0000000000000000e+00 0.0000000000000000e+00 0.0000000000000000e+00  9.4755104962076456e-08 -3.1435289005032579e-08 0.0000000000000000e+00  9.4531367109175766e-08 3.3342151094737896e-08 0.0000000000000000e+00  0.0000000000000000e+00 0.0000000000000000e+00 0.0000000000000000e+00  0.0000000000000000e+00 0.0000000000000000e+00 0.0000000000000000e+00  0.0000000000000000e+00 0.0000000000000000e+00 0.0000000000000000e+00  0.0000000000000000e+00 0.0000000000000000e+00 0.0000000000000000e+00  9.4019512651036095e-08 8.7581777369108976e-10 0.0000000000000000e+00  4.9096236288274602e-08 0.0000000000000000e+00 0.0000000000000000e+00  9.0639205455282192e-08 0.0000000000000000e+00 0.0000000000000000e+00  1.2462890750101306e-07 0.0000000000000000e+00 0.0000000000000000e+00  1.5106534242550650e-07 0.0000000000000000e+00 0.0000000000000000e+00  1.6994851022875909e-07 0.0000000000000000e+00 0.0000000000000000e+00  1.8127841091076979e-07 0.0000000000000000e+00 0.0000000000000000e+00  1.8505504447152713e-07 0.0000000000000000e+00 0.0000000000000000e+00  1.8127841091099883e-07 0.0000000000000000e+00 0.0000000000000000e+00  1.6994851022915259e-07 0.0000000000000000e+00 0.0000000000000000e+00  1.5106534242599379e-07 0.0000000000000000e+00 0.0000000000000000e+00  1.2462890750147596e-07 0.0000000000000000e+00 0.0000000000000000e+00  9.0639205455677227e-08 0.0000000000000000e+00 0.0000000000000000e+00  4.9096236288497173e-08 0.0000000000000000e+00 0.0000000000000000e+00  0.0000000000000000e+00 0.0000000000000000e+00 0.0000000000000000e+00  0.0000000000000000e+00 0.0000000000000000e+00 0.0000000000000000e+00  0.0000000000000000e+00 0.0000000000000000e+00 0.0000000000000000e+00  0.0000000000000000e+00 0.0000000000000000e+00 0.0000000000000000e+00  0.0000000000000000e+00 0.0000000000000000e+00 0.0000000000000000e+00  0.0000000000000000e+00 0.0000000000000000e+00 0.0000000000000000e+00  0.0000000000000000e+00 0.0000000000000000e+00 0.0000000000000000e+00  0.0000000000000000e+00 0.0000000000000000e+00 0.0000000000000000e+00  0.0000000000000000e+00 0.0000000000000000e+00 0.0000000000000000e+00  0.0000000000000000e+00 0.0000000000000000e+00 0.0000000000000000e+00  0.0000000000000000e+00 0.0000000000000000e+00 0.0000000000000000e+00  0.0000000000000000e+00 0.0000000000000000e+00 0.0000000000000000e+00  0.0000000000000000e+00 0.0000000000000000e+00 0.0000000000000000e+00  0.0000000000000000e+00 0.0000000000000000e+00 0.0000000000000000e+00  0.0000000000000000e+00 0.0000000000000000e+00 0.0000000000000000e+00  0.0000000000000000e+00 0.0000000000000000e+00 0.0000000000000000e+00  0.0000000000000000e+00 0.0000000000000000e+00 0.0000000000000000e+00  0.0000000000000000e+00 0.0000000000000000e+00 0.0000000000000000e+00  0.0000000000000000e+00 0.0000000000000000e+00 0.0000000000000000e+00  0.0000000000000000e+00 0.0000000000000000e+00 0.0000000000000000e+00  0.0000000000000000e+00 0.0000000000000000e+00 0.0000000000000000e+00  0.0000000000000000e+00 0.0000000000000000e+00 0.0000000000000000e+00  0.0000000000000000e+00 0.0000000000000000e+00 0.0000000000000000e+00  0.0000000000000000e+00 0.0000000000000000e+00 0.0000000000000000e+00  0.0000000000000000e+00 0.0000000000000000e+00 0.0000000000000000e+00  0.0000000000000000e+00 0.0000000000000000e+00 0.0000000000000000e+00  0.0000000000000000e+00 0.0000000000000000e+00 0.0000000000000000e+00  0.0000000000000000e+00 0.0000000000000000e+00 0.0000000000000000e+00  0.0000000000000000e+00 0.0000000000000000e+00 0.0000000000000000e+00  0.0000000000000000e+00 0.0000000000000000e+00 0.0000000000000000e+00  0.0000000000000000e+00 0.0000000000000000e+00 0.0000000000000000e+00  0.0000000000000000e+00 0.0000000000000000e+00 0.0000000000000000e+00  0.0000000000000000e+00 0.0000000000000000e+00 0.0000000000000000e+00  0.0000000000000000e+00 0.0000000000000000e+00 0.0000000000000000e+00  0.0000000000000000e+00 0.0000000000000000e+00 0.0000000000000000e+00  0.0000000000000000e+00 0.0000000000000000e+00 0.0000000000000000e+00  0.0000000000000000e+00 0.0000000000000000e+00 0.0000000000000000e+00  0.0000000000000000e+00 0.0000000000000000e+00 0.0000000000000000e+00  -8.4192539627535185e-09 1.8667782397056408e-11 0.0000000000000000e+00  -8.7065210234212494e-09 -1.3576278459767691e-11 0.0000000000000000e+00  -8.4300542271414709e-09 -3.6615461713228601e-11 0.0000000000000000e+00  0.0000000000000000e+00 0.0000000000000000e+00 0.0000000000000000e+00  0.0000000000000000e+00 0.0000000000000000e+00 0.0000000000000000e+00  0.0000000000000000e+00 0.0000000000000000e+00 0.0000000000000000e+00  0.0000000000000000e+00 0.0000000000000000e+00 0.0000000000000000e+00  0.0000000000000000e+00 0.0000000000000000e+00 0.0000000000000000e+00  0.0000000000000000e+00 0.0000000000000000e+00 0.0000000000000000e+00  0.0000000000000000e+00 0.0000000000000000e+00 0.0000000000000000e+00  0.0000000000000000e+00 0.0000000000000000e+00 0.0000000000000000e+00  0.0000000000000000e+00 0.0000000000000000e+00 0.0000000000000000e+00  0.0000000000000000e+00 0.0000000000000000e+00 0.0000000000000000e+00  0.0000000000000000e+00 0.0000000000000000e+00 0.0000000000000000e+00  0.0000000000000000e+00 0.0000000000000000e+00 0.0000000000000000e+00  0.0000000000000000e+00 0.0000000000000000e+00 0.0000000000000000e+00  0.0000000000000000e+00 0.0000000000000000e+00 0.0000000000000000e+00  0.0000000000000000e+00 0.0000000000000000e+00 0.0000000000000000e+00  0.0000000000000000e+00 0.0000000000000000e+00 0.0000000000000000e+00  0.0000000000000000e+00 0.0000000000000000e+00 0.0000000000000000e+00  0.0000000000000000e+00 0.0000000000000000e+00 0.0000000000000000e+00  0.0000000000000000e+00 0.0000000000000000e+00 0.0000000000000000e+00  0.0000000000000000e+00 0.0000000000000000e+00 0.0000000000000000e+00  0.0000000000000000e+00 0.0000000000000000e+00 0.0000000000000000e+00  0.0000000000000000e+00 0.0000000000000000e+00 0.0000000000000000e+00  0.0000000000000000e+00 0.0000000000000000e+00 0.0000000000000000e+00  0.0000000000000000e+00 0.0000000000000000e+00 0.0000000000000000e+00  0.0000000000000000e+00 0.0000000000000000e+00 0.0000000000000000e+00  0.0000000000000000e+00 0.0000000000000000e+00 0.0000000000000000e+00  0.0000000000000000e+00 0.0000000000000000e+00 0.0000000000000000e+00  0.0000000000000000e+00 0.0000000000000000e+00 0.0000000000000000e+00  0.0000000000000000e+00 0.0000000000000000e+00 0.0000000000000000e+00  0.0000000000000000e+00 0.0000000000000000e+00 0.0000000000000000e+00  0.0000000000000000e+00 0.0000000000000000e+00 0.0000000000000000e+00  0.0000000000000000e+00 0.0000000000000000e+00 0.0000000000000000e+00  0.0000000000000000e+00 0.0000000000000000e+00 0.0000000000000000e+00  0.0000000000000000e+00 0.0000000000000000e+00 0.0000000000000000e+00  0.0000000000000000e+00 0.0000000000000000e+00 0.0000000000000000e+00  0.0000000000000000e+00 0.0000000000000000e+00 0.0000000000000000e+00  0.0000000000000000e+00 0.0000000000000000e+00 0.0000000000000000e+00  0.0000000000000000e+00 0.0000000000000000e+00 0.0000000000000000e+00  0.0000000000000000e+00 0.0000000000000000e+00 0.0000000000000000e+00  0.0000000000000000e+00 0.0000000000000000e+00 0.0000000000000000e+00  0.0000000000000000e+00 0.0000000000000000e+00 0.0000000000000000e+00  0.0000000000000000e+00 0.0000000000000000e+00 0.0000000000000000e+00  0.0000000000000000e+00 0.0000000000000000e+00 0.0000000000000000e+00  0.0000000000000000e+00 0.0000000000000000e+00 0.0000000000000000e+00  0.0000000000000000e+00 0.0000000000000000e+00 0.0000000000000000e+00  0.0000000000000000e+00 0.0000000000000000e+00 0.0000000000000000e+00  0.0000000000000000e+00 0.0000000000000000e+00 0.0000000000000000e+00  0.0000000000000000e+00 0.0000000000000000e+00 0.0000000000000000e+00  0.0000000000000000e+00 0.0000000000000000e+00 0.0000000000000000e+00  0.0000000000000000e+00 0.0000000000000000e+00 0.0000000000000000e+00  0.0000000000000000e+00 0.0000000000000000e+00 0.0000000000000000e+00  0.0000000000000000e+00 0.0000000000000000e+00 0.0000000000000000e+00  0.0000000000000000e+00 0.0000000000000000e+00 0.0000000000000000e+00  0.0000000000000000e+00 0.0000000000000000e+00 0.0000000000000000e+00  0.0000000000000000e+00 0.0000000000000000e+00 0.0000000000000000e+00  0.0000000000000000e+00 0.0000000000000000e+00 0.0000000000000000e+00  0.0000000000000000e+00 0.0000000000000000e+00 0.0000000000000000e+00  0.0000000000000000e+00 0.0000000000000000e+00 0.0000000000000000e+00  0.0000000000000000e+00 0.0000000000000000e+00 0.0000000000000000e+00  0.0000000000000000e+00 0.0000000000000000e+00 0.0000000000000000e+00  0.0000000000000000e+00 0.0000000000000000e+00 0.0000000000000000e+00  0.0000000000000000e+00 0.0000000000000000e+00 0.0000000000000000e+00  0.0000000000000000e+00 0.0000000000000000e+00 0.0000000000000000e+00  0.0000000000000000e+00 0.0000000000000000e+00 0.0000000000000000e+00  0.0000000000000000e+00 0.0000000000000000e+00 0.0000000000000000e+00  0.0000000000000000e+00 0.0000000000000000e+00 0.0000000000000000e+00  0.0000000000000000e+00 0.0000000000000000e+00 0.0000000000000000e+00  0.0000000000000000e+00 0.0000000000000000e+00 0.0000000000000000e+00  0.0000000000000000e+00 0.0000000000000000e+00 0.0000000000000000e+00  0.0000000000000000e+00 0.0000000000000000e+00 0.0000000000000000e+00  0.0000000000000000e+00 0.0000000000000000e+00 0.0000000000000000e+00  0.0000000000000000e+00 0.0000000000000000e+00 0.0000000000000000e+00  0.0000000000000000e+00 0.0000000000000000e+00 0.0000000000000000e+00  0.0000000000000000e+00 0.0000000000000000e+00 0.0000000000000000e+00  0.0000000000000000e+00 0.0000000000000000e+00 0.0000000000000000e+00  0.0000000000000000e+00 0.0000000000000000e+00 0.0000000000000000e+00  0.0000000000000000e+00 0.0000000000000000e+00 0.0000000000000000e+00  0.0000000000000000e+00 0.0000000000000000e+00 0.0000000000000000e+00  -1.0864697537345953e-08 1.0268897945074165e-07 0.0000000000000000e+00  -8.3520356471828080e-09 1.1024965983516077e-07 0.0000000000000000e+00  -1.4156993484460263e-08 1.0624418376757886e-07 0.0000000000000000e+00  -2.1039455775848950e-08 1.0220768267311312e-07 0.0000000000000000e+00  -2.6641170095128816e-08 9.8775000770731421e-08 0.0000000000000000e+00  -3.1102166162567708e-08 9.5601105725776125e-08 0.0000000000000000e+00  -3.4494013294026118e-08 9.2546225086689477e-08 0.0000000000000000e+00  -3.7007689964539704e-08 8.9765389927505251e-08 0.0000000000000000e+00  -3.8823439916981796e-08 8.7119968534747125e-08 0.0000000000000000e+00  -4.0033435219031651e-08 8.4709393490098879e-08 0.0000000000000000e+00  -4.0787089575794871e-08 8.2400351382137815e-08 0.0000000000000000e+00  -4.1109486654582711e-08 8.0255797449228879e-08 0.0000000000000000e+00  -4.1098119384852295e-08 7.8186089875484097e-08 0.0000000000000000e+00  -4.0783306542381375e-08 7.6266064380031546e-08 0.0000000000000000e+00  -4.0244349432274975e-08 7.4438569917710072e-08 0.0000000000000000e+00  -3.9541583046973152e-08 7.2722845210064676e-08 0.0000000000000000e+00  -3.8674619661613910e-08 7.1056346959797142e-08 0.0000000000000000e+00  -3.7687222390686678e-08 6.9486775047724665e-08 0.0000000000000000e+00  -3.6587289836661960e-08 6.7982187324227890e-08 0.0000000000000000e+00  -3.5412866743730448e-08 6.6543564543897283e-08 0.0000000000000000e+00  -3.4153411998896806e-08 6.5160583303349769e-08 0.0000000000000000e+00  -3.2823527959370032e-08 6.3820805630504241e-08 0.0000000000000000e+00  -3.1425587671274303e-08 6.2557990232340330e-08 0.0000000000000000e+00  -2.9964928404876502e-08 6.1331456976133151e-08 0.0000000000000000e+00  -2.8447402266553188e-08 6.0166564973461553e-08 0.0000000000000000e+00  -2.6847106476869457e-08 5.9017797869749482e-08 0.0000000000000000e+00  -2.5168517482945791e-08 5.7937996860510119e-08 0.0000000000000000e+00  -2.3410322304137079e-08 5.6874825709575347e-08 0.0000000000000000e+00  -2.1539438927685501e-08 5.5851878133339586e-08 0.0000000000000000e+00  -1.9553859979228730e-08 5.4874999879559743e-08 0.0000000000000000e+00  -1.7428079738249066e-08 5.3902999948004336e-08 0.0000000000000000e+00  -1.5118218619012568e-08 5.2975767413773238e-08 0.0000000000000000e+00  -1.2633636283188936e-08 5.2054785645782769e-08 0.0000000000000000e+00  -9.8826605351043533e-09 5.1118371702792736e-08 0.0000000000000000e+00  -6.8171201837326514e-09 5.0206410170700913e-08 0.0000000000000000e+00  -3.4053961033264388e-09 4.9305794725590974e-08 0.0000000000000000e+00  4.2056356204738222e-10 4.8381107795482521e-08 0.0000000000000000e+00  4.7535918458742875e-09 4.7432429382704373e-08 0.0000000000000000e+00  9.7115923865420646e-09 4.6393330287438305e-08 0.0000000000000000e+00  1.5440384866752140e-08 4.5314645172866516e-08 0.0000000000000000e+00  2.2045251111150215e-08 4.4123854153204330e-08 0.0000000000000000e+00  2.9770154917304909e-08 4.2797023861741774e-08 0.0000000000000000e+00  3.8814416934371943e-08 4.1345307137394997e-08 0.0000000000000000e+00  4.9443931315630645e-08 3.9644656451043494e-08 0.0000000000000000e+00  6.1994404804484367e-08 3.7660244126051327e-08 0.0000000000000000e+00  7.6848186547943364e-08 3.5206453819720866e-08 0.0000000000000000e+00  9.4298636349891714e-08 1.7208114964346191e-08 0.0000000000000000e+00  9.4335427774771234e-08 -1.5405511764272953e-08 0.0000000000000000e+00  7.6904096701421435e-08 -3.3483732440045466e-08 0.0000000000000000e+00  6.2009343497071766e-08 -3.5963783229830370e-08 0.0000000000000000e+00  4.9412782990450439e-08 -3.7983433925794325e-08 0.0000000000000000e+00  3.8763309643693646e-08 -3.9664338732382742e-08 0.0000000000000000e+00  2.9723117844434222e-08 -4.1083193177069389e-08 0.0000000000000000e+00  2.1993656477351371e-08 -4.2333436327948677e-08 0.0000000000000000e+00  1.5387127022277507e-08 -4.3482883244905196e-08 0.0000000000000000e+00  9.6693959593558942e-09 -4.4494444420625713e-08 0.0000000000000000e+00  4.7046921671955597e-09 -4.5477622871315811e-08 0.0000000000000000e+00  3.5143741820577278e-10 -4.6402565614873497e-08 0.0000000000000000e+00  -3.4644372914736047e-09 -4.7321586276306931e-08 0.0000000000000000e+00  -6.8616225683057958e-09 -4.8193702893386732e-08 0.0000000000000000e+00  -9.8951880858151700e-09 -4.9072805458927605e-08 0.0000000000000000e+00  -1.2651983872468448e-08 -4.9932107544322011e-08 0.0000000000000000e+00  -1.5153680345195078e-08 -5.0823382288320381e-08 0.0000000000000000e+00  -1.7466605493660820e-08 -5.1723150945760892e-08 0.0000000000000000e+00  -1.9587947744829313e-08 -5.2668466864792001e-08 0.0000000000000000e+00  -2.1574212120745814e-08 -5.3619993305001074e-08 0.0000000000000000e+00  -2.3426664396444286e-08 -5.4614424458723912e-08 0.0000000000000000e+00  -2.5197706688902395e-08 -5.5623640842047503e-08 0.0000000000000000e+00  -2.6870688360451181e-08 -5.6693499628875979e-08 0.0000000000000000e+00  -2.8481023559528425e-08 -5.7797191159018779e-08 0.0000000000000000e+00  -2.9997015666688240e-08 -5.8970444625902655e-08 0.0000000000000000e+00  -3.1453852353906145e-08 -6.0158645488595920e-08 0.0000000000000000e+00  -3.2845760602798281e-08 -6.1427442771497659e-08 0.0000000000000000e+00  -3.4172537343224069e-08 -6.2720118610258346e-08 0.0000000000000000e+00  -3.5442345341989276e-08 -6.4095062103702977e-08 0.0000000000000000e+00  -3.6632217407108029e-08 -6.5520337650286436e-08 0.0000000000000000e+00  -3.7728596874210320e-08 -6.7040911640382312e-08 0.0000000000000000e+00  -3.8703743002878259e-08 -6.8602715258828090e-08 0.0000000000000000e+00  -3.9561229279392418e-08 -7.0253376463159853e-08 0.0000000000000000e+00  -4.0268537211588204e-08 -7.1953494222215402e-08 0.0000000000000000e+00  -4.0813759639292231e-08 -7.3763469120005567e-08 0.0000000000000000e+00  -4.1134185669711939e-08 -7.5666308940572162e-08 0.0000000000000000e+00  -4.1156565680630307e-08 -7.7703861606416739e-08 0.0000000000000000e+00  -4.0844972880417894e-08 -7.9801674581820603e-08 0.0000000000000000e+00  -4.0122344521206634e-08 -8.2051310862761632e-08 0.0000000000000000e+00  -3.8929039759741649e-08 -8.4380583961405254e-08 0.0000000000000000e+00  -3.7132345527834205e-08 -8.6911465254536785e-08 0.0000000000000000e+00  -3.4611880069497089e-08 -8.9549165285964960e-08 0.0000000000000000e+00  -3.1175768994734535e-08 -9.2443150233045092e-08 0.0000000000000000e+00  -2.6611974989873108e-08 -9.5478197735939815e-08 0.0000000000000000e+00  -2.0817960254120778e-08 -9.8873388973844387e-08 0.0000000000000000e+00  -1.3671481055992777e-08 -1.0310318852068772e-07 0.0000000000000000e+00  -7.6251557289879064e-09 -1.0763436539612533e-07 0.0000000000000000e+00  -1.0152289424475715e-08 -1.0100906627978324e-07 0.0000000000000000e+00  3.3823023129655930e-09 1.9298765551181127e-09 0.0000000000000000e+00  6.8515919033264096e-08 1.2810419596217305e-09 0.0000000000000000e+00  4.4277532384478681e-08 1.6209409005308426e-09 0.0000000000000000e+00  1.7966544831309718e-08 1.3810357102855545e-09 0.0000000000000000e+00  -1.8953409500377893e-08 1.6440574324297946e-09 0.0000000000000000e+00  6.7628925159579812e-09 9.4567422946165031e-10 0.0000000000000000e+00  -3.0055870890190883e-08 3.7869091509918702e-10 0.0000000000000000e+00  -1.9457456591433171e-09 9.7644475783668850e-10 0.0000000000000000e+00  -3.9271366630587931e-08 2.1101113671778056e-10 0.0000000000000000e+00  -4.1535624802598679e-08 1.2862885961156871e-09 0.0000000000000000e+00  -8.7797533497878958e-09 1.0044018250521499e-09 0.0000000000000000e+00  -4.0717259991730970e-08 2.5463165609527839e-10 0.0000000000000000e+00  -1.8959296078052921e-08 1.0793080146699711e-09 0.0000000000000000e+00  -4.2093019446695565e-08 2.2980692840521607e-10 0.0000000000000000e+00  -3.8965607491590338e-08 1.2075813711397579e-09 0.0000000000000000e+00  -2.2973101509988260e-08 1.1078229096893010e-09 0.0000000000000000e+00  -1.4318082642115169e-08 1.0476805209918606e-09 0.0000000000000000e+00  -3.6722433441815693e-08 1.2043117792267568e-09 0.0000000000000000e+00  -2.6545247557423624e-08 1.1406239090004531e-09 0.0000000000000000e+00  -3.4255072097606546e-08 3.6585216333024190e-10 0.0000000000000000e+00  -2.9724317394332202e-08 1.9172051966519331e-09 0.0000000000000000e+00  -3.2155994838120928e-08 1.1558300395413630e-09 0.0000000000000000e+00  -4.1710063296081556e-08 1.3684022889676583e-09 0.0000000000000000e+00  3.0034597806917379e-08 7.6717170641686329e-10 0.0000000000000000e+00  -3.5542020267751179e-08 1.4608044095851796e-09 0.0000000000000000e+00  5.5360991566796334e-08 -1.1765573415357929e-08 0.0000000000000000e+00  -1.0103331850577771e-08 -3.7394918359134060e-08 0.0000000000000000e+00  2.1493846580204418e-09 -1.2617788078284915e-08 0.0000000000000000e+00  1.2099452979839924e-08 -1.2086473293352017e-08 0.0000000000000000e+00  -2.5248829757818542e-08 3.6567118266476238e-08 0.0000000000000000e+00  -4.0530232966458009e-08 2.5791559340800069e-08 0.0000000000000000e+00  -1.6701530644756310e-08 -1.4086357600823052e-08 0.0000000000000000e+00  -5.5315680110471161e-09 -1.3123818857484424e-08 0.0000000000000000e+00  -3.9855868206987106e-08 2.1659337538306502e-08 0.0000000000000000e+00  -2.0998629622842476e-08 -1.4606656906645997e-08 0.0000000000000000e+00  -4.1907676947130996e-08 2.4422735178451424e-08 0.0000000000000000e+00  -3.7827222854943338e-08 2.0742909167864391e-08 0.0000000000000000e+00  -2.4768155768793060e-08 -1.5155997883274651e-08 0.0000000000000000e+00  -1.1654139758819747e-08 -1.3601916585629957e-08 0.0000000000000000e+00  -3.5398978736969941e-08 2.4025309230719395e-08 0.0000000000000000e+00  -2.8164166465784463e-08 -1.5750919783337844e-08 0.0000000000000000e+00  1.1566796934908243e-08 3.1924854307549348e-08 0.0000000000000000e+00  1.1887495029939407e-08 -2.9191988343321704e-08 0.0000000000000000e+00  8.1187535779268994e-08 9.0155534720368329e-09 0.0000000000000000e+00  -1.0422361819516437e-08 4.4891947184059236e-08 0.0