<?xml version="1.0"?>
<VTKFile type="UnstructuredGrid"  version="0.1"  >
<UnstructuredGrid>
<Piece  NumberOfPoints="1419" NumberOfCells="2698">
<Points>
<DataArray  type="Float64"  NumberOfComponents="3"  format="ascii">0 0 0  0 0.41 0  2.5 0 0  2.5 0.41 0  0.5999999961748065 0.1900000009145125 0  0.5999999961813859 0.2099999990295388 0  0.25 0.2 0  0.15 0.2 0  0.2489897948556636 0.21 0  0.2489897948556636 0.19 0  0.5999999961883605 0.199999999972402 0  0 0.3807142857143437 0  0 0.3514285714286952 0  0 0.3221428571430699 0  0 0.29285714285744 0  0 0.2635714285718054 0  0 0.2342857142861561 0  0 0.2050000000005308 0  0 0.175714285714732 0  0 0.1464285714289574 0  0 0.1171428571431897 0  0 0.08785714285737878 0  0 0.05857142857161107 0  0 0.02928571428580012 0  0.03015443760436003 0 0  0.06140001986583606 0 0  0.09377624077125973 0 0  0.1273239957535082 0 0  0.1620856860351972 0 0  0.1981052433264291 0 0  0.235428184091502 0 0  0.2741016576309132 0 0  0.3141745521465447 0 0  0.3556974926295285 0 0  0.3987229542472677 0 0  0.4433053055141081 0 0  0.4895008759286886 0 0  0.5373680609405097 0 0  0.5869673343216626 0 0  0.6383613676634521 0 0  0.6916151138468254 0 0  0.7467958595648856 0 0  0.8039733463919316 0 0  0.8632198139502143 0 0  0.9246101326867038 0 0  0.9882218810934433 0 0  1.054135445558498 0 0  1.122434100542598 0 0  1.193204177141305 0 0  1.266535089879536 0 0  1.342519516046404 0 0  1.421253448503939 0 0  1.502836389106271 0 0  1.587371439758838 0 0  1.674965418777374 0 0  1.765729001825544 0 0  1.859776908880082 0 0  1.957227977487062 0 0  2.058205329869943 0 0  2.162836591189951 0 0  2.271253957290865 0 0  2.383594446803425 0 0  2.5 0.1024999999997612 0  2.5 0.2049999999994743 0  2.5 0.3074999999997183 0  2.383594446803656 0.41 0  2.271253957291315 0.41 0  2.162836591190598 0.41 0  2.058205329870775 0.41 0  1.957227977488067 0.41 0  1.859776908881246 0.41 0  1.765729001826854 0.41 0  1.674965418778818 0.41 0  1.58737143976041 0.41 0  1.502836389107956 0.41 0  1.421253448505726 0.41 0  1.342519516048286 0.41 0  1.266535089881505 0.41 0  1.193204177143353 0.41 0  1.122434100544716 0.41 0  1.05413544556068 0.41 0  0.9882218810956305 0.41 0  0.9246101326886647 0.41 0  0.8632198139519631 0.41 0  0.8039733463934788 0.41 0  0.7467958595662458 0.41 0  0.6916151138480078 0.41 0  0.6383613676644679 0.41 0  0.5869673343225223 0.41 0  0.5373680609412221 0.41 0  0.4895008759292634 0.41 0  0.4433053055145528 0.41 0  0.3987229542475914 0.41 0  0.3556974926297398 0.41 0  0.3141745521466497 0.41 0  0.2741016576310038 0.41 0  0.2354281840915826 0.41 0  0.1981052433265003 0.41 0  0.1620856860352591 0.41 0  0.1273239957535623 0.41 0  0.09377624077128965 0.41 0  0.06140001986584975 0.41 0  0.03015443760436654 0.41 0  0.2497468076502589 0.2050254481002335 0  0.2497468076502614 0.1949745518997913 0  0.2469965252529372 0.1829317073451959 0  0.2439893735792749 0.1762316384219906 0  0.2400332147834255 0.1700443375285386 0  0.2352133972704371 0.1645032867342007 0  0.2296339016332438 0.1597280261969788 0  0.2234150974217223 0.1558215752574715 0  0.2166911463437691 0.1528682099456123 0  0.2096071079204251 0.1509316448471593 0  0.2023158100364996 0.1500536585536553 0  0.194974551899914 0.1502531923497262 0  0.1877417105387872 0.1515259415822739 0  0.1807733240461124 0.153844448527136 0  0.1742197252835808 0.15715869474974 0  0.1682222986673531 0.1613971801805478 0  0.162910430003803 0.1664684656256651 0  0.1583987151779087 0.1722631454351573 0  0.1547844879126891 0.178656207771761 0  0.1521457199348551 0.1855097315605723 0  0.1505393388476355 0.1926758619366523 0  0.1505393388476328 0.2073241380633295 0  0.1521457199348437 0.2144902684393899 0  0.1547844879126531 0.221343792228163 0  0.1583987151778488 0.2277368545647528 0  0.1629104300036858 0.2335315343742052 0  0.1682222986671726 0.2386028198193036 0  0.1742197252833576 0.2428413052501257 0  0.1807733240458683 0.2461555514727623 0  0.1877417105384929 0.2484740584176516 0  0.1949745518995776 0.2497468076502398 0  0.202315810036185 0.2499463414463592 0  0.2096071079201568 0.2490683551528932 0  0.2166911463435495 0.2471317900544655 0  0.2234150974215506 0.2441784247426195 0  0.2296339016331197 0.2402719738031125 0  0.2352133972703547 0.2354967132658811 0  0.2400332147833751 0.2299556624715287 0  0.2439893735792577 0.2237683615780412 0  0.246996525252926 0.2170682926548348 0  0.256458097295489 0.2099999977857447 0  0.2639263994530104 0.2099999977245255 0  0.2713947018241846 0.2099999977644444 0  0.278863004216322 0.209999997807024 0  0.2863313066019708 0.2099999978379793 0  0.2937996089681728 0.2099999978717444 0  0.3012679113198792 0.2099999979067805 0  0.3087362136524653 0.2099999979412648 0  0.3162045159724304 0.2099999979760488 0  0.323672818277901 0.2099999980056837 0  0.3311411205707078 0.2099999980387371 0  0.3386094228513447 0.2099999980657701 0  0.3460777251201189 0.2099999980943771 0  0.3535460273800128 0.2099999981209604 0  0.3610143296281441 0.2099999981460818 0  0.3684826318694011 0.2099999981707373 0  0.3759509341023086 0.2099999981921548 0  0.3834192363280084 0.2099999982160182 0  0.3908875385470861 0.2099999982356604 0  0.3983558407597669 0.2099999982578354 0  0.4058241429667839 0.209999998276894 0  0.413292445167611 0.2099999982971833 0  0.4207607473641355 0.209999998316806 0  0.4282290495531542 0.2099999983358894 0  0.4356973517375962 0.2099999983551395 0  0.4431656539157698 0.2099999983733577 0  0.4506339560876713 0.2099999983930135 0  0.4581022582530359 0.2099999984112798 0  0.4655705604107472 0.2099999984315698 0  0.4730388625606292 0.2099999984501248 0  0.4805071647014149 0.2099999984714372 0  0.4879754668319713 0.2099999984910619 0  0.4954437689519204 0.209999998513895 0  0.5029120710587609 0.2099999985361928 0  0.5103803731505107 0.2099999985613928 0  0.5178486752264961 0.2099999985851577 0  0.5253169772842291 0.2099999986132208 0  0.5327852793218129 0.2099999986406199 0  0.5402535813355172 0.2099999986741634 0  0.5477218833228608 0.209999998706659 0  0.5551901852807053 0.2099999987444485 0  0.5626584872071042 0.2099999987860628 0  0.5701267890926425 0.2099999988291407 0  0.5775950909385081 0.2099999988778496 0  0.5850633927386787 0.2099999989287797 0  0.5925316944909402 0.2099999989934382 0  0.599999996178365 0.2049999994940524 0  0.5999999961765682 0.1950000004514369 0  0.592531694486399 0.1900000009549455 0  0.5850633927365795 0.1900000010227602 0  0.5775950909382568 0.1900000010747024 0  0.5701267890929848 0.1900000011247235 0  0.5626584872079597 0.1900000011673679 0  0.5551901852821887 0.1900000012073592 0  0.5477218833248636 0.1900000012442445 0  0.5402535813372631 0.1900000012740211 0  0.5327852793238345 0.1900000013069588 0  0.5253169772867763 0.1900000013327721 0  0.5178486752288518 0.1900000013617991 0  0.5103803731524281 0.1900000013842162 0  0.5029120710599414 0.1900000014093111 0  0.4954437689532142 0.1900000014289077 0  0.4879754668338721 0.1900000014515381 0  0.4805071647032793 0.1900000014698064 0  0.4730388625624656 0.1900000014912066 0  0.4655705604125552 0.190000001508537 0  0.4581022582545455 0.190000001528774 0  0.4506339560893467 0.190000001545392 0  0.4431656539174453 0.1900000015653046 0  0.4356973517393637 0.1900000015822991 0  0.4282290495548069 0.1900000016018736 0  0.4207607473656044 0.1900000016204948 0  0.4132924451689711 0.1900000016400779 0  0.4058241429678439 0.1900000016596226 0  0.3983558407609409 0.1900000016787807 0  0.3908875385481821 0.1900000017005348 0  0.3834192363290937 0.1900000017211814 0  0.3759509341031249 0.190000001744505 0  0.3684826318701628 0.1900000017665078 0  0.3610143296293069 0.1900000017905868 0  0.3535460273815892 0.1900000018153828 0  0.3460777251220999 0.1900000018413765 0  0.3386094228536169 0.1900000018685159 0  0.3311411205736154 0.1900000018943983 0  0.3236728182814452 0.1900000019240141 0  0.3162045159761624 0.1900000019511169 0  0.3087362136561308 0.1900000019815638 0  0.3012679113216742 0.1900000020121133 0  0.2937996089674395 0.1900000020447561 0  0.2863313065965133 0.1900000020785848 0  0.278863004205429 0.1900000021144263 0  0.2713947018084666 0.1900000021692292 0  0.2639263994351818 0.1900000022275685 0  0.2564580972736785 0.1900000021822077 0  0.2607803158555014 0.200072713594119 0  0.5887803744125559 0.2001272386615409 0  0.5745072382061601 0.2002044434558907 0  0.5511891418794481 0.2001122609697078 0  0.275128853021011 0.1999999999630064 0  0.5365194303436024 0.1999999999740744 0  0.289462122927929 0.1998691686237132 0  0.5215828262688675 0.1999999999732505 0  0.312778982627365 0.199865788533433 0  0.3274069694390389 0.1999999999659808 0  0.5066462221163576 0.1999999999726756 0  0.365063075886904 0.1998660178004763 0  0.4767730136413823 0.1999999999706558 0  0.3417402391363285 0.1998691686312617 0  0.379685085225617 0.1999999999686258 0  0.461836409341944 0.1999999999700052 0  0.491709617902824 0.1999999999714641 0  0.394621689663379 0.1999999999683521 0  0.4468998050117228 0.1999999999692613 0  0.4089549592199037 0.1998691686295751 0  0.4322718184486307 0.2001274512139201 0  0.4201487178701944 0.1999966198741633 0  0.3528922725361552 0.2000185703181541 0  0.5633122420431907 0.1999814296258141 0  0.3006558818174583 0.1999966198644366 0  0.5815926472531725 0.1966545286501402 0  0.2677053790834414 0.1964246487005904 0  0.5290511283166537 0.1970915830512009 0  0.5439877323444118 0.1970915830344333 0  0.2825131261973257 0.2035478987980391 0  0.3199386671392921 0.2029084167047102 0  0.4842413157769918 0.1970915830902213 0  0.5141145242006966 0.1970915830661998 0  0.372216782995978 0.2029084167631016 0  0.4693047114955406 0.1970915831010879 0  0.3348752717237222 0.2029084167246486 0  0.3871533874471109 0.202908416775968 0  0.4543681071799306 0.1970915831113982 0  0.4991779200158126 0.1970915830789284 0  0.4020059626491544 0.2035478989634256 0  0.4394315028362822 0.1970915831216802 0  0.2550657451954018 0.2034088119072716 0  0.2548908495723911 0.1966940317469017 0  0.5946539476004754 0.20
[...]
<PointData  Vectors="f_44-0"> 
<DataArray  type="Float64"  Name="f_44-0"  NumberOfComponents="3" format="ascii">0.0000000000000000e+00 0.0000000000000000e+00 0.0000000000000000e+00  0.0000000000000000e+00 0.0000000000000000e+00 0.0000000000000000e+00  0.0000000000000000e+00 0.0000000000000000e+00 0.0000000000000000e+00  0.0000000000000000e+00 0.0000000000000000e+00 0.0000000000000000e+00  -2.4978553870973020e-06 5.2387598689928821e-07 0.0000000000000000e+00  -2.4919191552791549e-06 -5.5862146038721768e-07 0.0000000000000000e+00  0.0000000000000000e+00 0.0000000000000000e+00 0.0000000000000000e+00  0.0000000000000000e+00 0.0000000000000000e+00 0.0000000000000000e+00  0.0000000000000000e+00 0.0000000000000000e+00 0.0000000000000000e+00  0.0000000000000000e+00 0.0000000000000000e+00 0.0000000000000000e+00  -2.4974322603130826e-06 -1.5861954754991024e-08 0.0000000000000000e+00  7.8553735780723979e-07 0.0000000000000000e+00 0.0000000000000000e+00  1.4502228144134620e-06 0.0000000000000000e+00 0.0000000000000000e+00  1.9940563698185109e-06 0.0000000000000000e+00 0.0000000000000000e+00  2.4170380240230153e-06 0.0000000000000000e+00 0.0000000000000000e+00  2.7191677770269209e-06 0.0000000000000000e+00 0.0000000000000000e+00  2.9004456288302102e-06 0.0000000000000000e+00 0.0000000000000000e+00  2.9608715794327007e-06 0.0000000000000000e+00 0.0000000000000000e+00  2.9004456288338749e-06 0.0000000000000000e+00 0.0000000000000000e+00  2.7191677770332169e-06 0.0000000000000000e+00 0.0000000000000000e+00  2.4170380240308119e-06 0.0000000000000000e+00 0.0000000000000000e+00  1.9940563698259174e-06 0.0000000000000000e+00 0.0000000000000000e+00  1.4502228144197826e-06 0.0000000000000000e+00 0.0000000000000000e+00  7.8553735781080093e-07 0.0000000000000000e+00 0.0000000000000000e+00  0.0000000000000000e+00 0.0000000000000000e+00 0.0000000000000000e+00  0.0000000000000000e+00 0.0000000000000000e+00 0.0000000000000000e+00  0.0000000000000000e+00 0.0000000000000000e+00 0.0000000000000000e+00  0.0000000000000000e+00 0.0000000000000000e+00 0.0000000000000000e+00  0.0000000000000000e+00 0.0000000000000000e+00 0.0000000000000000e+00  0.0000000000000000e+00 0.0000000000000000e+00 0.0000000000000000e+00  0.0000000000000000e+00 0.0000000000000000e+00 0.0000000000000000e+00  0.0000000000000000e+00 0.0000000000000000e+00 0.0000000000000000e+00  0.0000000000000000e+00 0.0000000000000000e+00 0.0000000000000000e+00  0.0000000000000000e+00 0.0000000000000000e+00 0.0000000000000000e+00  0.0000000000000000e+00 0.0000000000000000e+00 0.0000000000000000e+00  0.0000000000000000e+00 0.0000000000000000e+00 0.0000000000000000e+00  0.0000000000000000e+00 0.0000000000000000e+00 0.0000000000000000e+00  0.0000000000000000e+00 0.0000000000000000e+00 0.0000000000000000e+00  0.0000000000000000e+00 0.0000000000000000e+00 0.0000000000000000e+00  0.0000000000000000e+00 0.0000000000000000e+00 0.0000000000000000e+00  0.0000000000000000e+00 0.0000000000000000e+00 0.0000000000000000e+00  0.0000000000000000e+00 0.0000000000000000e+00 0.0000000000000000e+00  0.0000000000000000e+00 0.0000000000000000e+00 0.0000000000000000e+00  0.0000000000000000e+00 0.0000000000000000e+00 0.0000000000000000e+00  0.0000000000000000e+00 0.0000000000000000e+00 0.0000000000000000e+00  0.0000000000000000e+00 0.0000000000000000e+00 0.0000000000000000e+00  0.0000000000000000e+00 0.0000000000000000e+00 0.0000000000000000e+00  0.0000000000000000e+00 0.0000000000000000e+00 0.0000000000000000e+00  0.0000000000000000e+00 0.0000000000000000e+00 0.0000000000000000e+00  0.0000000000000000e+00 0.0000000000000000e+00 0.0000000000000000e+00  0.0000000000000000e+00 0.0000000000000000e+00 0.0000000000000000e+00  0.0000000000000000e+00 0.0000000000000000e+00 0.0000000000000000e+00  0.0000000000000000e+00 0.0000000000000000e+00 0.0000000000000000e+00  0.0000000000000000e+00 0.0000000000000000e+00 0.0000000000000000e+00  0.0000000000000000e+00 0.0000000000000000e+00 0.0000000000000000e+00  0.0000000000000000e+00 0.0000000000000000e+00 0.0000000000000000e+00  0.0000000000000000e+00 0.0000000000000000e+00 0.0000000000000000e+00  0.0000000000000000e+00 0.0000000000000000e+00 0.0000000000000000e+00  0.0000000000000000e+00 0.0000000000000000e+00 0.0000000000000000e+00  0.0000000000000000e+00 0.0000000000000000e+00 0.0000000000000000e+00  0.0000000000000000e+00 0.0000000000000000e+00 0.0000000000000000e+00  0.0000000000000000e+00 0.0000000000000000e+00 0.0000000000000000e+00  3.4523249981573327e-07 -7.3339099232087074e-10 0.0000000000000000e+00  3.5707759891788380e-07 5.4854431173532610e-10 0.0000000000000000e+00  3.4566583176658400e-07 1.4642317333058259e-09 0.0000000000000000e+00  0.0000000000000000e+00 0.0000000000000000e+00 0.0000000000000000e+00  0.0000000000000000e+00 0.0000000000000000e+00 0.0000000000000000e+00  0.0000000000000000e+00 0.0000000000000000e+00 0.0000000000000000e+00  0.0000000000000000e+00 0.0000000000000000e+00 0.0000000000000000e+00  0.0000000000000000e+00 0.0000000000000000e+00 0.0000000000000000e+00  0.0000000000000000e+00 0.0000000000000000e+00 0.0000000000000000e+00  0.0000000000000000e+00 0.0000000000000000e+00 0.0000000000000000e+00  0.0000000000000000e+00 0.0000000000000000e+00 0.0000000000000000e+00  0.0000000000000000e+00 0.0000000000000000e+00 0.0000000000000000e+00  0.0000000000000000e+00 0.0000000000000000e+00 0.0000000000000000e+00  0.0000000000000000e+00 0.0000000000000000e+00 0.0000000000000000e+00  0.0000000000000000e+00 0.0000000000000000e+00 0.0000000000000000e+00  0.0000000000000000e+00 0.0000000000000000e+00 0.0000000000000000e+00  0.0000000000000000e+00 0.0000000000000000e+00 0.0000000000000000e+00  0.0000000000000000e+00 0.0000000000000000e+00 0.0000000000000000e+00  0.0000000000000000e+00 0.0000000000000000e+00 0.0000000000000000e+00  0.0000000000000000e+00 0.0000000000000000e+00 0.0000000000000000e+00  0.0000000000000000e+00 0.0000000000000000e+00 0.0000000000000000e+00  0.0000000000000000e+00 0.0000000000000000e+00 0.0000000000000000e+00  0.0000000000000000e+00 0.0000000000000000e+00 0.0000000000000000e+00  0.0000000000000000e+00 0.0000000000000000e+00 0.0000000000000000e+00  0.0000000000000000e+00 0.0000000000000000e+00 0.0000000000000000e+00  0.0000000000000000e+00 0.0000000000000000e+00 0.0000000000000000e+00  0.0000000000000000e+00 0.0000000000000000e+00 0.0000000000000000e+00  0.0000000000000000e+00 0.0000000000000000e+00 0.0000000000000000e+00  0.0000000000000000e+00 0.0000000000000000e+00 0.0000000000000000e+00  0.0000000000000000e+00 0.0000000000000000e+00 0.0000000000000000e+00  0.0000000000000000e+00 0.0000000000000000e+00 0.0000000000000000e+00  0.0000000000000000e+00 0.0000000000000000e+00 0.0000000000000000e+00  0.0000000000000000e+00 0.0000000000000000e+00 0.0000000000000000e+00  0.0000000000000000e+00 0.0000000000000000e+00 0.0000000000000000e+00  0.0000000000000000e+00 0.0000000000000000e+00 0.0000000000000000e+00  0.0000000000000000e+00 0.0000000000000000e+00 0.0000000000000000e+00  0.0000000000000000e+00 0.0000000000000000e+00 0.0000000000000000e+00  0.0000000000000000e+00 0.0000000000000000e+00 0.0000000000000000e+00  0.0000000000000000e+00 0.0000000000000000e+00 0.0000000000000000e+00  0.0000000000000000e+00 0.0000000000000000e+00 0.0000000000000000e+00  0.0000000000000000e+00 0.0000000000000000e+00 0.0000000000000000e+00  0.0000000000000000e+00 0.0000000000000000e+00 0.0000000000000000e+00  0.0000000000000000e+00 0.0000000000000000e+00 0.0000000000000000e+00  0.0000000000000000e+00 0.0000000000000000e+00 0.0000000000000000e+00  0.0000000000000000e+00 0.0000000000000000e+00 0.0000000000000000e+00  0.0000000000000000e+00 0.0000000000000000e+00 0.0000000000000000e+00  0.0000000000000000e+00 0.0000000000000000e+00 0.0000000000000000e+00  0.0000000000000000e+00 0.0000000000000000e+00 0.0000000000000000e+00  0.0000000000000000e+00 0.0000000000000000e+00 0.0000000000000000e+00  0.0000000000000000e+00 0.0000000000000000e+00 0.0000000000000000e+00  0.0000000000000000e+00 0.0000000000000000e+00 0.0000000000000000e+00  0.0000000000000000e+00 0.0000000000000000e+00 0.0000000000000000e+00  0.0000000000000000e+00 0.0000000000000000e+00 0.0000000000000000e+00  0.0000000000000000e+00 0.0000000000000000e+00 0.0000000000000000e+00  0.0000000000000000e+00 0.0000000000000000e+00 0.0000000000000000e+00  0.0000000000000000e+00 0.0000000000000000e+00 0.0000000000000000e+00  0.0000000000000000e+00 0.0000000000000000e+00 0.0000000000000000e+00  0.0000000000000000e+00 0.0000000000000000e+00 0.0000000000000000e+00  0.0000000000000000e+00 0.0000000000000000e+00 0.0000000000000000e+00  0.0000000000000000e+00 0.0000000000000000e+00 0.0000000000000000e+00  0.0000000000000000e+00 0.0000000000000000e+00 0.0000000000000000e+00  0.0000000000000000e+00 0.0000000000000000e+00 0.0000000000000000e+00  0.0000000000000000e+00 0.0000000000000000e+00 0.0000000000000000e+00  0.0000000000000000e+00 0.0000000000000000e+00 0.0000000000000000e+00  0.0000000000000000e+00 0.0000000000000000e+00 0.0000000000000000e+00  0.0000000000000000e+00 0.0000000000000000e+00 0.0000000000000000e+00  0.0000000000000000e+00 0.0000000000000000e+00 0.0000000000000000e+00  0.0000000000000000e+00 0.0000000000000000e+00 0.0000000000000000e+00  0.0000000000000000e+00 0.0000000000000000e+00 0.0000000000000000e+00  0.0000000000000000e+00 0.0000000000000000e+00 0.0000000000000000e+00  0.0000000000000000e+00 0.0000000000000000e+00 0.0000000000000000e+00  0.0000000000000000e+00 0.0000000000000000e+00 0.0000000000000000e+00  0.0000000000000000e+00 0.0000000000000000e+00 0.0000000000000000e+00  0.0000000000000000e+00 0.0000000000000000e+00 0.0000000000000000e+00  0.0000000000000000e+00 0.0000000000000000e+00 0.0000000000000000e+00  0.0000000000000000e+00 0.0000000000000000e+00 0.0000000000000000e+00  0.0000000000000000e+00 0.0000000000000000e+00 0.0000000000000000e+00  0.0000000000000000e+00 0.0000000000000000e+00 0.0000000000000000e+00  0.0000000000000000e+00 0.0000000000000000e+00 0.0000000000000000e+00  0.0000000000000000e+00 0.0000000000000000e+00 0.0000000000000000e+00  0.0000000000000000e+00 0.0000000000000000e+00 0.0000000000000000e+00  7.8864056472677884e-08 -9.2767189252829098e-07 0.0000000000000000e+00  5.0054975977033608e-08 -1.1157328325844894e-06 0.0000000000000000e+00  1.0224632036412028e-07 -1.1159259565792101e-06 0.0000000000000000e+00  1.8533504990955568e-07 -1.1089012615857787e-06 0.0000000000000000e+00  2.6060450124799596e-07 -1.0997294599893695e-06 0.0000000000000000e+00  3.3151320786409380e-07 -1.0912331619806269e-06 0.0000000000000000e+00  3.9448194296910683e-07 -1.0809404041197263e-06 0.0000000000000000e+00  4.5362657928318344e-07 -1.0698574514188072e-06 0.0000000000000000e+00  5.0491674505959205e-07 -1.0587451655177853e-06 0.0000000000000000e+00  5.5017296491918852e-07 -1.0458765069202902e-06 0.0000000000000000e+00  5.8891493926421601e-07 -1.0359419384971346e-06 0.0000000000000000e+00  6.2114174487650481e-07 -1.0238673382864985e-06 0.0000000000000000e+00  6.4740340754079688e-07 -1.0135841796891356e-06 0.0000000000000000e+00  6.6636477523208692e-07 -1.0040371431542566e-06 0.0000000000000000e+00  6.8119463788374808e-07 -9.9435196114152700e-07 0.0000000000000000e+00  6.8956175667910994e-07 -9.8589903793259128e-07 0.0000000000000000e+00  6.9297416317915271e-07 -9.7587526190675596e-07 0.0000000000000000e+00  6.9136841431147428e-07 -9.6843408093231527e-07 0.0000000000000000e+00  6.8501580553217709e-07 -9.5902120187103340e-07 0.0000000000000000e+00  6.7429038237339170e-07 -9.5166624904330339e-07 0.0000000000000000e+00  6.5898899451819650e-07 -9.4277781679049275e-07 0.0000000000000000e+00  6.3953378474315391e-07 -9.3470982319321603e-07 0.0000000000000000e+00  6.1501724644882066e-07 -9.2704635274948406e-07 0.0000000000000000e+00  5.8736263124602384e-07 -9.1859591361192273e-07 0.0000000000000000e+00  5.5466407171307063e-07 -9.1067814890814463e-07 0.0000000000000000e+00  5.1736045810926401e-07 -9.0157431181483009e-07 0.0000000000000000e+00  4.7516901187631588e-07 -8.9352518340411230e-07 0.0000000000000000e+00  4.2791525522722556e-07 -8.8392156408941449e-07 0.0000000000000000e+00  3.7498599867653965e-07 -8.7493560481444977e-07 0.0000000000000000e+00  3.1613375062557513e-07 -8.6474796195461140e-07 0.0000000000000000e+00  2.5067122499421731e-07 -8.5463285320472426e-07 0.0000000000000000e+00  1.7786363068412317e-07 -8.4327088173951215e-07 0.0000000000000000e+00  9.7468535610034986e-08 -8.3191981431745748e-07 0.0000000000000000e+00  7.9426320861423712e-09 -8.1837318395676468e-07 0.0000000000000000e+00  -9.1660202789841263e-08 -8.0532280288620776e-07 0.0000000000000000e+00  -2.0188758144978183e-07 -7.9053716794956039e-07 0.0000000000000000e+00  -3.2383974670899596e-07 -7.7554920676459315e-07 0.0000000000000000e+00  -4.5882767041385337e-07 -7.5831276724001340e-07 0.0000000000000000e+00  -6.0830460128308754e-07 -7.4023324870778871e-07 0.0000000000000000e+00  -7.7401650646660257e-07 -7.2003401490555120e-07 0.0000000000000000e+00  -9.5638599509080530e-07 -6.9887178474441165e-07 0.0000000000000000e+00  -1.1589096645659327e-06 -6.7654357137053571e-07 0.0000000000000000e+00  -1.3799452022778643e-06 -6.5233197570344491e-07 0.0000000000000000e+00  -1.6236070776996011e-06 -6.2679235136239063e-07 0.0000000000000000e+00  -1.8906695193949577e-06 -5.9802408602172656e-07 0.0000000000000000e+00  -2.1815802861291499e-06 -5.7046327723272195e-07 0.0000000000000000e+00  -2.4963955342158562e-06 -2.8708646242933177e-07 0.0000000000000000e+00  -2.4979283345521790e-06 2.5377309298753054e-07 0.0000000000000000e+00  -2.1837221267600485e-06 5.4075487576291905e-07 0.0000000000000000e+00  -1.8926654429217464e-06 5.6956060760452588e-07 0.0000000000000000e+00  -1.6247366714363719e-06 6.0035060382386349e-07 0.0000000000000000e+00  -1.3800909678624859e-06 6.2615571117096280e-07 0.0000000000000000e+00  -1.1586946943832926e-06 6.5055973343792208e-07 0.0000000000000000e+00  -9.5585532996269199e-07 6.7199145688317808e-07 0.0000000000000000e+00  -7.7333119090950071e-07 6.9251843942243430e-07 0.0000000000000000e+00  -6.0773309296193275e-07 7.1203032076144397e-07 0.0000000000000000e+00  -4.5811355286824375e-07 7.2883980475234365e-07 0.0000000000000000e+00  -3.2285768179402067e-07 7.4612865997565366e-07 0.0000000000000000e+00  -2.0100828408665321e-07 7.6082167738556342e-07 0.0000000000000000e+00  -9.1065698187286455e-08 7.7567755064873843e-07 0.0000000000000000e+00  8.0958719489986382e-09 7.8798233175184347e-07 0.0000000000000000e+00  9.7651140833717361e-08 8.0064556757126499e-07 0.0000000000000000e+00  1.7834514084790561e-07 8.1122179036579299e-07 0.0000000000000000e+00  2.5115477650919543e-07 8.2253260116550966e-07 0.0000000000000000e+00  3.1655672102186651e-07 8.3199532081718870e-07 0.0000000000000000e+00  3.7535933779188181e-07 8.4224199437159159e-07 0.0000000000000000e+00  4.2808599643640551e-07 8.5056513755944950e-07 0.0000000000000000e+00  4.7539544880054369e-07 8.5991634221469003e-07 0.0000000000000000e+00  5.1753228192833129e-07 8.6761022203119483e-07 0.0000000000000000e+00  5.5484988622168597e-07 8.7656950855030771e-07 0.0000000000000000e+00  5.8764241811805778e-07 8.8439431974801828e-07 0.0000000000000000e+00  6.1524327454613573e-07 8.9249475963017438e-07 0.0000000000000000e+00  6.3967337558909455e-07 9.0023553721230873e-07 0.0000000000000000e+00  6.5912634752090084e-07 9.0803708259998274e-07 0.0000000000000000e+00  6.7442920767375586e-07 9.1680906787966608e-07 0.0000000000000000e+00  6.8530952514249430e-07 9.2439121268520845e-07 0.0000000000000000e+00  6.9163972107593784e-07 9.3369062552832625e-07 0.0000000000000000e+00  6.9319880714315397e-07 9.4164018929366463e-07 0.0000000000000000e+00  6.8985749652209685e-07 9.5127161251912219e-07 0.0000000000000000e+00  6.8151146783004162e-07 9.5992590241076191e-07 0.0000000000000000e+00  6.6694103161360665e-07 9.6939250356857764e-07 0.0000000000000000e+00  6.4833424853046755e-07 9.7848164138491468e-07 0.0000000000000000e+00  6.2270387412075265e-07 9.8810744215418436e-07 0.0000000000000000e+00  5.9086981957340428e-07 9.9840929675936344e-07 0.0000000000000000e+00  5.5251094536978896e-07 1.0071214175453066e-06 0.0000000000000000e+00  5.0729230902670170e-07 1.0172923702797123e-06 0.0000000000000000e+00  4.5527839761631482e-07 1.0264104391571514e-06 0.0000000000000000e+00  3.9501314136593279e-07 1.0357369267618991e-06 0.0000000000000000e+00  3.2985568154598539e-07 1.0454150205490925e-06 0.0000000000000000e+00  2.5648647208119695e-07 1.0555881086795827e-06 0.0000000000000000e+00  1.7827863119533489e-07 1.0693036029084880e-06 0.0000000000000000e+00  9.2536950950535100e-08 1.0838788163207594e-06 0.0000000000000000e+00  3.9505834233820239e-08 1.0937295379839201e-06 0.0000000000000000e+00  7.5313132035504508e-08 9.1908608906664027e-07 0.0000000000000000e+00  -7.6469005059968026e-08 -1.6893949805768621e-08 0.0000000000000000e+00  -2.0282417583195741e-06 -2.1843977022911010e-08 0.0000000000000000e+00  -1.5131460785148860e-06 -2.5736120008402403e-08 0.0000000000000000e+00  -8.5018681944098628e-07 -2.1471943932322459e-08 0.0000000000000000e+00  1.4031670842120193e-07 -1.8411016026495353e-08 0.0000000000000000e+00  -5.2630303577394675e-07 -1.4399461666694887e-08 0.0000000000000000e+00  2.9198697005080083e-07 -8.9189468484024371e-09 0.0000000000000000e+00  -2.5627866290133282e-07 -1.4833535847348917e-08 0.0000000000000000e+00  4.8610293782558137e-07 -7.3861041667763660e-09 0.0000000000000000e+00  5.7436112096776093e-07 -1.8906560013118830e-08 0.0000000000000000e+00  -3.6336723309275682e-08 -1.5153444310597555e-08 0.0000000000000000e+00  6.8954639538241301e-07 -4.2179862121224285e-09 0.0000000000000000e+00  2.8783640329233520e-07 -1.6257184216307132e-08 0.0000000000000000e+00  6.3656502149581342e-07 -4.3502536812430095e-09 0.0000000000000000e+00  6.9580932937854435e-07 -1.7188723372543401e-08 0.0000000000000000e+00  4.0547004470669350e-07 -1.6595897905650845e-08 0.0000000000000000e+00  1.4254957059739679e-07 -1.5787692616918577e-08 0.0000000000000000e+00  6.8316443553101017e-07 -1.7237574600857163e-08 0.0000000000000000e+00  4.9998905272618990e-07 -1.6922221422505386e-08 0.0000000000000000e+00  6.5423474629454783e-07 -5.1931152697383915e-09 0.0000000000000000e+00  5.7321389017475016e-07 -2.8458502696856809e-08 0.0000000000000000e+00  6.2016979502125568e-07 -1.6911767640763680e-08 0.0000000000000000e+00  6.6833582355190248e-07 -1.9071362063212202e-08 0.0000000000000000e+00  -1.1700300684296274e-06 -1.1731399365813060e-08 0.0000000000000000e+00  3.9260663882152741e-07 -2.2615540874295796e-08 0.0000000000000000e+00  -1.7585525426521819e-06 1.8651903709122757e-07 0.0000000000000000e+00  4.6506764985950386e-08 3.8789145143934994e-07 0.0000000000000000e+00  -3.8472235088277850e-07 2.0424822662772097e-07 0.0000000000000000e+00  -6.8373810038641394e-07 1.9453610772715847e-07 0.0000000000000000e+00  2.2215079662511232e-07 -4.0544375829336879e-07 0.0000000000000000e+00  5.3172429163035446e-07 -3.2022242783029733e-07 0.0000000000000000e+00  2.1864124096586214e-07 2.2633151674584854e-07 0.0000000000000000e+00  -1.4098311091094591e-07 2.1297513726333376e-07 0.0000000000000000e+00  6.9450330166990839e-07 -2.9742747068685453e-07 0.0000000000000000e+00  3.4945577236862156e-07 2.3193899015370134e-07 0.0000000000000000e+00  6.0900357739016769e-07 -3.1242266344587715e-07 0.0000000000000000e+00  6.9133504227420120e-07 -2.9259516502761946e-07 0.0000000000000000e+00  4.5502443391447328e-07 2.3695021822723574e-07 0.0000000000000000e+00  5.7379852784694195e-08 2.2019954691991536e-07 0.0000000000000000e+00  6.6970515658426965e-07 -3.4727515770173221e-07 0.0000000000000000e+00  5.3926593190305459e-07 2.4161636002933979e-07 0.0000000000000000e+00  -1.0110567016464299e-07 -3.1257033703992268e-07 0.0000000000000000e+00  -1.0504832174493176e-07 2.8667079572610341e-07 0.0000000000000000e+00  -2.2675540413895819e-06 -1.4856022389055590e-07 0.0000000000000000e+00  5.1806858495634946e-08 -4.6164313937655527e-07 0.0000000000000000e+00  5.9810156256957184e-