<?xml version="1.0"?>
<VTKFile type="UnstructuredGrid"  version="0.1"  >
<UnstructuredGrid>
<Piece  NumberOfPoints="1419" NumberOfCells="2698">
<Points>
<DataArray  type="Float64"  NumberOfComponents="3"  format="ascii">0 0 0  0 0.41 0  2.5 0 0  2.5 0.41 0  0.5999999751624068 0.1900000037648833 0  0.5999999751977321 0.2099999959581311 0  0.25 0.2 0  0.15 0.2 0  0.2489897948556636 0.21 0  0.2489897948556636 0.19 0  0.5999999751496516 0.1999999998627107 0  0 0.3807142857143437 0  0 0.3514285714286952 0  0 0.3221428571430699 0  0 0.29285714285744 0  0 0.2635714285718054 0  0 0.2342857142861561 0  0 0.2050000000005308 0  0 0.175714285714732 0  0 0.1464285714289574 0  0 0.1171428571431897 0  0 0.08785714285737878 0  0 0.05857142857161107 0  0 0.02928571428580012 0  0.03015443760436003 0 0  0.06140001986583606 0 0  0.09377624077125973 0 0  0.1273239957535082 0 0  0.1620856860351972 0 0  0.1981052433264291 0 0  0.235428184091502 0 0  0.2741016576309132 0 0  0.3141745521465447 0 0  0.3556974926295285 0 0  0.3987229542472677 0 0  0.4433053055141081 0 0  0.4895008759286886 0 0  0.5373680609405097 0 0  0.5869673343216626 0 0  0.6383613676634521 0 0  0.6916151138468254 0 0  0.7467958595648856 0 0  0.8039733463919316 0 0  0.8632198139502143 0 0  0.9246101326867038 0 0  0.9882218810934433 0 0  1.054135445558498 0 0  1.122434100542598 0 0  1.193204177141305 0 0  1.266535089879536 0 0  1.342519516046404 0 0  1.421253448503939 0 0  1.502836389106271 0 0  1.587371439758838 0 0  1.674965418777374 0 0  1.765729001825544 0 0  1.859776908880082 0 0  1.957227977487062 0 0  2.058205329869943 0 0  2.162836591189951 0 0  2.271253957290865 0 0  2.383594446803425 0 0  2.5 0.1024999999997612 0  2.5 0.2049999999994743 0  2.5 0.3074999999997183 0  2.383594446803656 0.41 0  2.271253957291315 0.41 0  2.162836591190598 0.41 0  2.058205329870775 0.41 0  1.957227977488067 0.41 0  1.859776908881246 0.41 0  1.765729001826854 0.41 0  1.674965418778818 0.41 0  1.58737143976041 0.41 0  1.502836389107956 0.41 0  1.421253448505726 0.41 0  1.342519516048286 0.41 0  1.266535089881505 0.41 0  1.193204177143353 0.41 0  1.122434100544716 0.41 0  1.05413544556068 0.41 0  0.9882218810956305 0.41 0  0.9246101326886647 0.41 0  0.8632198139519631 0.41 0  0.8039733463934788 0.41 0  0.7467958595662458 0.41 0  0.6916151138480078 0.41 0  0.6383613676644679 0.41 0  0.5869673343225223 0.41 0  0.5373680609412221 0.41 0  0.4895008759292634 0.41 0  0.4433053055145528 0.41 0  0.3987229542475914 0.41 0  0.3556974926297398 0.41 0  0.3141745521466497 0.41 0  0.2741016576310038 0.41 0  0.2354281840915826 0.41 0  0.1981052433265003 0.41 0  0.1620856860352591 0.41 0  0.1273239957535623 0.41 0  0.09377624077128965 0.41 0  0.06140001986584975 0.41 0  0.03015443760436654 0.41 0  0.2497468076502589 0.2050254481002335 0  0.2497468076502614 0.1949745518997913 0  0.2469965252529372 0.1829317073451959 0  0.2439893735792749 0.1762316384219906 0  0.2400332147834255 0.1700443375285386 0  0.2352133972704371 0.1645032867342007 0  0.2296339016332438 0.1597280261969788 0  0.2234150974217223 0.1558215752574715 0  0.2166911463437691 0.1528682099456123 0  0.2096071079204251 0.1509316448471593 0  0.2023158100364996 0.1500536585536553 0  0.194974551899914 0.1502531923497262 0  0.1877417105387872 0.1515259415822739 0  0.1807733240461124 0.153844448527136 0  0.1742197252835808 0.15715869474974 0  0.1682222986673531 0.1613971801805478 0  0.162910430003803 0.1664684656256651 0  0.1583987151779087 0.1722631454351573 0  0.1547844879126891 0.178656207771761 0  0.1521457199348551 0.1855097315605723 0  0.1505393388476355 0.1926758619366523 0  0.1505393388476328 0.2073241380633295 0  0.1521457199348437 0.2144902684393899 0  0.1547844879126531 0.221343792228163 0  0.1583987151778488 0.2277368545647528 0  0.1629104300036858 0.2335315343742052 0  0.1682222986671726 0.2386028198193036 0  0.1742197252833576 0.2428413052501257 0  0.1807733240458683 0.2461555514727623 0  0.1877417105384929 0.2484740584176516 0  0.1949745518995776 0.2497468076502398 0  0.202315810036185 0.2499463414463592 0  0.2096071079201568 0.2490683551528932 0  0.2166911463435495 0.2471317900544655 0  0.2234150974215506 0.2441784247426195 0  0.2296339016331197 0.2402719738031125 0  0.2352133972703547 0.2354967132658811 0  0.2400332147833751 0.2299556624715287 0  0.2439893735792577 0.2237683615780412 0  0.246996525252926 0.2170682926548348 0  0.2564580976783008 0.2099999920183415 0  0.263926399500478 0.2099999917470773 0  0.2713947021196352 0.2099999918374098 0  0.2788630048411436 0.2099999919248144 0  0.2863313075626938 0.2099999919738662 0  0.2937996102357146 0.2099999920307697 0  0.3012679128721821 0.2099999920963022 0  0.3087362154629615 0.2099999921692658 0  0.3162045180185791 0.209999992248831 0  0.3236728205342902 0.2099999923221926 0  0.3311411230108658 0.2099999924081035 0  0.338609425447828 0.2099999924821427 0  0.3460777278427847 0.2099999925629583 0  0.3535460302000718 0.2099999926394696 0  0.3610143325104823 0.209999992715148 0  0.3684826347834857 0.2099999927904895 0  0.3759509370134428 0.2099999928580493 0  0.3834192392009457 0.2099999929355799 0  0.3908875413460425 0.209999993001531 0  0.3983558434472333 0.2099999930789051 0  0.4058241455054399 0.2099999931476914 0  0.4132924475166724 0.2099999932240696 0  0.4207607494860001 0.2099999932987312 0  0.4282290514009392 0.2099999933765207 0  0.4356973532704254 0.209999993455763 0  0.4431656550869835 0.209999993533264 0  0.4506339568498499 0.2099999936186518 0  0.4581022585576986 0.2099999936998324 0  0.4655705602049892 0.2099999937915144 0  0.4730388617918512 0.2099999938762523 0  0.4805071633128627 0.2099999939744369 0  0.4879754647645244 0.2099999940650211 0  0.4954437661466511 0.2099999941699721 0  0.5029120674503779 0.209999994271426 0  0.5103803686706014 0.2099999943844976 0  0.5178486698075713 0.2099999944892404 0  0.5253169708549615 0.2099999946097439 0  0.5327852718089275 0.2099999947236971 0  0.5402535726611577 0.2099999948575956 0  0.5477218734075335 0.2099999949824794 0  0.5551901740429855 0.2099999951214042 0  0.5626584745662777 0.2099999952659586 0  0.5701267749550709 0.2099999954104635 0  0.5775950752185074 0.2099999955650282 0  0.5850633753457489 0.2099999957193663 0  0.5925316753479762 0.20999999590701 0  0.5999999751350603 0.2049999978857874 0  0.5999999751226404 0.1950000018408023 0  0.5925316753192711 0.1900000038415065 0  0.5850633753250464 0.190000004049333 0  0.5775950752052913 0.1900000042164878 0  0.5701267749466564 0.1900000043826992 0  0.5626584745622073 0.1900000045314172 0  0.5551901740435801 0.1900000046742391 0  0.5477218734115408 0.1900000048123131 0  0.5402535726657559 0.1900000049279951 0  0.532785271815161 0.1900000050600884 0  0.5253169708635677 0.1900000051669122 0  0.5178486698159648 0.1900000052905602 0  0.5103803686775813 0.1900000053886771 0  0.5029120674543336 0.1900000055009134 0  0.4954437661507061 0.1900000055900538 0  0.4879754647709132 0.1900000056939881 0  0.4805071633188187 0.1900000057782053 0  0.4730388617973468 0.1900000058769422 0  0.4655705602099896 0.1900000059563862 0  0.4581022585608848 0.1900000060481729 0  0.4506339568534651 0.1900000061223003 0  0.4431656550902922 0.1900000062095329 0  0.4356973532736924 0.1900000062822893 0  0.428229051403779 0.1900000063637266 0  0.4207607494876913 0.1900000064403407 0  0.4132924475178987 0.1900000065161475 0  0.405824145505492 0.1900000065906485 0  0.3983558434478942 0.1900000066612294 0  0.3908875413469243 0.1900000067384027 0  0.3834192392024872 0.1900000068091441 0  0.375950937015261 0.1900000068855681 0  0.3684826347868451 0.1900000069545077 0  0.361014332516881 0.1900000070261174 0  0.3535460302096778 0.1900000070968253 0  0.3460777278552756 0.1900000071653135 0  0.3386094254619575 0.1900000072340028 0  0.3311411230258983 0.1900000072960247 0  0.3236728205477691 0.1900000073651214 0  0.316204518027601 0.1900000074268244 0  0.3087362154641021 0.1900000074963344 0  0.3012679128602502 0.1900000075672114 0  0.2937996102094115 0.1900000076442126 0  0.2863313075194128 0.1900000077259801 0  0.278863004782695 0.1900000078162957 0  0.2713947020531897 0.1900000079645194 0  0.263926399437514 0.190000008124706 0  0.256458097608399 0.1900000078966693 0  0.2607803152605533 0.2000727135217679 0  0.5887803561516172 0.2001272385292575 0  0.5745072231680804 0.2002044433067583 0  0.551189131382846 0.2001122608524747 0  0.2751288534472361 0.1999999998846785 0  0.536519422284674 0.1999999998929159 0  0.2894621240114736 0.1998691685821976 0  0.5215828203796468 0.1999999998891405 0  0.312778984578773 0.1998657884799593 0  0.3274069718073886 0.1999999998475467 0  0.5066462181045238 0.1999999998858453 0  0.3650630788056072 0.1998660177756229 0  0.4767730125917368 0.1999999998763437 0  0.3417402418061075 0.1998691685958269 0  0.3796850881369311 0.1999999998725291 0  0.4618364094184622 0.1999999998736736 0  0.4917096154971459 0.1999999998800922 0  0.39462169242657 0.1999999998701106 0  0.446899806003726 0.1999999998708281 0  0.4089549616988911 0.1998691685959531 0  0.4322718201485976 0.2001274510527135 0  0.4201487200266212 0.1999966197767154 0  0.3528922753639281 0.2000185702082979 0  0.5633122292909221 0.1999814295546982 0  0.300655883347088 0.1999966197368561 0  0.5815926306587489 0.1966545296217069 0  0.2677053790997546 0.1964246508111551 0  0.5290511213789018 0.1970915840960829 0  0.5439877230819925 0.1970915840285619 0  0.2825131269868888 0.2035478966468974 0  0.3199386693063748 0.2029084149563631 0  0.4842413140778787 0.1970915842680005 0  0.5141145192838813 0.1970915841596243 0  0.3722167859262444 0.2029084151369482 0  0.4693047110351514 0.1970915843182888 0  0.3348752742604432 0.2029084150146014 0  0.3871533903012113 0.2029084151781305 0  0.4543681077379111 0.1970915843653145 0  0.4991779168380127 0.1970915842161645 0  0.4020059652822884 0.2035478970708781 0  0.4394315042110649 0.1970915844107337 0  0.2550657441853585 0.2034088102802973 0  0.2548908485576647 0.1966940332835436 0  0.5946539279009651 0.2
[...]
<PointData  Vectors="f_44-0"> 
<DataArray  type="Float64"  Name="f_44-0"  NumberOfComponents="3" format="ascii">0.0000000000000000e+00 0.0000000000000000e+00 0.0000000000000000e+00  0.0000000000000000e+00 0.0000000000000000e+00 0.0000000000000000e+00  0.0000000000000000e+00 0.0000000000000000e+00 0.0000000000000000e+00  0.0000000000000000e+00 0.0000000000000000e+00 0.0000000000000000e+00  -9.7428465718083801e-06 1.1779465897692214e-06 0.0000000000000000e+00  -9.7240035306803482e-06 -1.2815118821199784e-06 0.0000000000000000e+00  0.0000000000000000e+00 0.0000000000000000e+00 0.0000000000000000e+00  0.0000000000000000e+00 0.0000000000000000e+00 0.0000000000000000e+00  0.0000000000000000e+00 0.0000000000000000e+00 0.0000000000000000e+00  0.0000000000000000e+00 0.0000000000000000e+00 0.0000000000000000e+00  -9.7737684805180474e-06 -4.7111508383331663e-08 0.0000000000000000e+00  2.4056918347365679e-06 0.0000000000000000e+00 0.0000000000000000e+00  4.4412772333601119e-06 0.0000000000000000e+00 0.0000000000000000e+00  6.1067561958701554e-06 0.0000000000000000e+00 0.0000000000000000e+00  7.4021287222686259e-06 0.0000000000000000e+00 0.0000000000000000e+00  8.3273948125553533e-06 0.0000000000000000e+00 0.0000000000000000e+00  8.8825544667302882e-06 0.0000000000000000e+00 0.0000000000000000e+00  9.0676076847928683e-06 0.0000000000000000e+00 0.0000000000000000e+00  8.8825544667415114e-06 0.0000000000000000e+00 0.0000000000000000e+00  8.3273948125746351e-06 0.0000000000000000e+00 0.0000000000000000e+00  7.4021287222925021e-06 0.0000000000000000e+00 0.0000000000000000e+00  6.1067561958928381e-06 0.0000000000000000e+00 0.0000000000000000e+00  4.4412772333794683e-06 0.0000000000000000e+00 0.0000000000000000e+00  2.4056918347474739e-06 0.0000000000000000e+00 0.0000000000000000e+00  0.0000000000000000e+00 0.0000000000000000e+00 0.0000000000000000e+00  0.0000000000000000e+00 0.0000000000000000e+00 0.0000000000000000e+00  0.0000000000000000e+00 0.0000000000000000e+00 0.0000000000000000e+00  0.0000000000000000e+00 0.0000000000000000e+00 0.0000000000000000e+00  0.0000000000000000e+00 0.0000000000000000e+00 0.0000000000000000e+00  0.0000000000000000e+00 0.0000000000000000e+00 0.0000000000000000e+00  0.0000000000000000e+00 0.0000000000000000e+00 0.0000000000000000e+00  0.0000000000000000e+00 0.0000000000000000e+00 0.0000000000000000e+00  0.0000000000000000e+00 0.0000000000000000e+00 0.0000000000000000e+00  0.0000000000000000e+00 0.0000000000000000e+00 0.0000000000000000e+00  0.0000000000000000e+00 0.0000000000000000e+00 0.0000000000000000e+00  0.0000000000000000e+00 0.0000000000000000e+00 0.0000000000000000e+00  0.0000000000000000e+00 0.0000000000000000e+00 0.0000000000000000e+00  0.0000000000000000e+00 0.0000000000000000e+00 0.0000000000000000e+00  0.0000000000000000e+00 0.0000000000000000e+00 0.0000000000000000e+00  0.0000000000000000e+00 0.0000000000000000e+00 0.0000000000000000e+00  0.0000000000000000e+00 0.0000000000000000e+00 0.0000000000000000e+00  0.0000000000000000e+00 0.0000000000000000e+00 0.0000000000000000e+00  0.0000000000000000e+00 0.0000000000000000e+00 0.0000000000000000e+00  0.0000000000000000e+00 0.0000000000000000e+00 0.0000000000000000e+00  0.0000000000000000e+00 0.0000000000000000e+00 0.0000000000000000e+00  0.0000000000000000e+00 0.0000000000000000e+00 0.0000000000000000e+00  0.0000000000000000e+00 0.0000000000000000e+00 0.0000000000000000e+00  0.0000000000000000e+00 0.0000000000000000e+00 0.0000000000000000e+00  0.0000000000000000e+00 0.0000000000000000e+00 0.0000000000000000e+00  0.0000000000000000e+00 0.0000000000000000e+00 0.0000000000000000e+00  0.0000000000000000e+00 0.0000000000000000e+00 0.0000000000000000e+00  0.0000000000000000e+00 0.0000000000000000e+00 0.0000000000000000e+00  0.0000000000000000e+00 0.0000000000000000e+00 0.0000000000000000e+00  0.0000000000000000e+00 0.0000000000000000e+00 0.0000000000000000e+00  0.0000000000000000e+00 0.0000000000000000e+00 0.0000000000000000e+00  0.0000000000000000e+00 0.0000000000000000e+00 0.0000000000000000e+00  0.0000000000000000e+00 0.0000000000000000e+00 0.0000000000000000e+00  0.0000000000000000e+00 0.0000000000000000e+00 0.0000000000000000e+00  0.0000000000000000e+00 0.0000000000000000e+00 0.0000000000000000e+00  0.0000000000000000e+00 0.0000000000000000e+00 0.0000000000000000e+00  0.0000000000000000e+00 0.0000000000000000e+00 0.0000000000000000e+00  0.0000000000000000e+00 0.0000000000000000e+00 0.0000000000000000e+00  2.3301313435679646e-06 -4.5009632462539868e-09 0.0000000000000000e+00  2.4109605336198402e-06 3.5922710155375633e-09 0.0000000000000000e+00  2.3329209149640514e-06 9.3673855036382274e-09 0.0000000000000000e+00  0.0000000000000000e+00 0.0000000000000000e+00 0.0000000000000000e+00  0.0000000000000000e+00 0.0000000000000000e+00 0.0000000000000000e+00  0.0000000000000000e+00 0.0000000000000000e+00 0.0000000000000000e+00  0.0000000000000000e+00 0.0000000000000000e+00 0.0000000000000000e+00  0.0000000000000000e+00 0.0000000000000000e+00 0.0000000000000000e+00  0.0000000000000000e+00 0.0000000000000000e+00 0.0000000000000000e+00  0.0000000000000000e+00 0.0000000000000000e+00 0.0000000000000000e+00  0.0000000000000000e+00 0.0000000000000000e+00 0.0000000000000000e+00  0.0000000000000000e+00 0.0000000000000000e+00 0.0000000000000000e+00  0.0000000000000000e+00 0.0000000000000000e+00 0.0000000000000000e+00  0.0000000000000000e+00 0.0000000000000000e+00 0.0000000000000000e+00  0.0000000000000000e+00 0.0000000000000000e+00 0.0000000000000000e+00  0.0000000000000000e+00 0.0000000000000000e+00 0.0000000000000000e+00  0.0000000000000000e+00 0.0000000000000000e+00 0.0000000000000000e+00  0.0000000000000000e+00 0.0000000000000000e+00 0.0000000000000000e+00  0.0000000000000000e+00 0.0000000000000000e+00 0.0000000000000000e+00  0.0000000000000000e+00 0.0000000000000000e+00 0.0000000000000000e+00  0.0000000000000000e+00 0.0000000000000000e+00 0.0000000000000000e+00  0.0000000000000000e+00 0.0000000000000000e+00 0.0000000000000000e+00  0.0000000000000000e+00 0.0000000000000000e+00 0.0000000000000000e+00  0.0000000000000000e+00 0.0000000000000000e+00 0.0000000000000000e+00  0.0000000000000000e+00 0.0000000000000000e+00 0.0000000000000000e+00  0.0000000000000000e+00 0.0000000000000000e+00 0.0000000000000000e+00  0.0000000000000000e+00 0.0000000000000000e+00 0.0000000000000000e+00  0.0000000000000000e+00 0.0000000000000000e+00 0.0000000000000000e+00  0.0000000000000000e+00 0.0000000000000000e+00 0.0000000000000000e+00  0.0000000000000000e+00 0.0000000000000000e+00 0.0000000000000000e+00  0.0000000000000000e+00 0.0000000000000000e+00 0.0000000000000000e+00  0.0000000000000000e+00 0.0000000000000000e+00 0.0000000000000000e+00  0.0000000000000000e+00 0.0000000000000000e+00 0.0000000000000000e+00  0.0000000000000000e+00 0.0000000000000000e+00 0.0000000000000000e+00  0.0000000000000000e+00 0.0000000000000000e+00 0.0000000000000000e+00  0.0000000000000000e+00 0.0000000000000000e+00 0.0000000000000000e+00  0.0000000000000000e+00 0.0000000000000000e+00 0.0000000000000000e+00  0.0000000000000000e+00 0.0000000000000000e+00 0.0000000000000000e+00  0.0000000000000000e+00 0.0000000000000000e+00 0.0000000000000000e+00  0.0000000000000000e+00 0.0000000000000000e+00 0.0000000000000000e+00  0.0000000000000000e+00 0.0000000000000000e+00 0.0000000000000000e+00  0.0000000000000000e+00 0.0000000000000000e+00 0.0000000000000000e+00  0.0000000000000000e+00 0.0000000000000000e+00 0.0000000000000000e+00  0.0000000000000000e+00 0.0000000000000000e+00 0.0000000000000000e+00  0.0000000000000000e+00 0.0000000000000000e+00 0.0000000000000000e+00  0.0000000000000000e+00 0.0000000000000000e+00 0.0000000000000000e+00  0.0000000000000000e+00 0.0000000000000000e+00 0.0000000000000000e+00  0.0000000000000000e+00 0.0000000000000000e+00 0.0000000000000000e+00  0.0000000000000000e+00 0.0000000000000000e+00 0.0000000000000000e+00  0.0000000000000000e+00 0.0000000000000000e+00 0.0000000000000000e+00  0.0000000000000000e+00 0.0000000000000000e+00 0.0000000000000000e+00  0.0000000000000000e+00 0.0000000000000000e+00 0.0000000000000000e+00  0.0000000000000000e+00 0.0000000000000000e+00 0.0000000000000000e+00  0.0000000000000000e+00 0.0000000000000000e+00 0.0000000000000000e+00  0.0000000000000000e+00 0.0000000000000000e+00 0.0000000000000000e+00  0.0000000000000000e+00 0.0000000000000000e+00 0.0000000000000000e+00  0.0000000000000000e+00 0.0000000000000000e+00 0.0000000000000000e+00  0.0000000000000000e+00 0.0000000000000000e+00 0.0000000000000000e+00  0.0000000000000000e+00 0.0000000000000000e+00 0.0000000000000000e+00  0.0000000000000000e+00 0.0000000000000000e+00 0.0000000000000000e+00  0.0000000000000000e+00 0.0000000000000000e+00 0.0000000000000000e+00  0.0000000000000000e+00 0.0000000000000000e+00 0.0000000000000000e+00  0.0000000000000000e+00 0.0000000000000000e+00 0.0000000000000000e+00  0.0000000000000000e+00 0.0000000000000000e+00 0.0000000000000000e+00  0.0000000000000000e+00 0.0000000000000000e+00 0.0000000000000000e+00  0.0000000000000000e+00 0.0000000000000000e+00 0.0000000000000000e+00  0.0000000000000000e+00 0.0000000000000000e+00 0.0000000000000000e+00  0.0000000000000000e+00 0.0000000000000000e+00 0.0000000000000000e+00  0.0000000000000000e+00 0.0000000000000000e+00 0.0000000000000000e+00  0.0000000000000000e+00 0.0000000000000000e+00 0.0000000000000000e+00  0.0000000000000000e+00 0.0000000000000000e+00 0.0000000000000000e+00  0.0000000000000000e+00 0.0000000000000000e+00 0.0000000000000000e+00  0.0000000000000000e+00 0.0000000000000000e+00 0.0000000000000000e+00  0.0000000000000000e+00 0.0000000000000000e+00 0.0000000000000000e+00  0.0000000000000000e+00 0.0000000000000000e+00 0.0000000000000000e+00  0.0000000000000000e+00 0.0000000000000000e+00 0.0000000000000000e+00  0.0000000000000000e+00 0.0000000000000000e+00 0.0000000000000000e+00  0.0000000000000000e+00 0.0000000000000000e+00 0.0000000000000000e+00  0.0000000000000000e+00 0.0000000000000000e+00 0.0000000000000000e+00  0.0000000000000000e+00 0.0000000000000000e+00 0.0000000000000000e+00  0.0000000000000000e+00 0.0000000000000000e+00 0.0000000000000000e+00  9.7112888808479549e-08 -1.7249256507298786e-06 0.0000000000000000e+00  8.5464456070887003e-09 -2.3475365599541167e-06 0.0000000000000000e+00  5.5376125187948970e-08 -2.3710084473263945e-06 0.0000000000000000e+00  1.9674363744110393e-07 -2.3671991885650773e-06 0.0000000000000000e+00  3.1340251072027530e-07 -2.3575841104311206e-06 0.0000000000000000e+00  4.2700307115109672e-07 -2.3514106432648577e-06 0.0000000000000000e+00  5.2706528134465840e-07 -2.3416314612603638e-06 0.0000000000000000e+00  6.2297229100042751e-07 -2.3297972212767046e-06 0.0000000000000000e+00  7.0594959622189776e-07 -2.3160198858913099e-06 0.0000000000000000e+00  7.7980225832681334e-07 -2.2948093677452431e-06 0.0000000000000000e+00  8.4313320410052543e-07 -2.2800072693679488e-06 0.0000000000000000e+00  8.9502548249636185e-07 -2.2563741997013876e-06 0.0000000000000000e+00  9.3583280988103074e-07 -2.2368588483131827e-06 0.0000000000000000e+00  9.6090339776830517e-07 -2.2169297064331768e-06 0.0000000000000000e+00  9.7712101363323487e-07 -2.1964608599191498e-06 0.0000000000000000e+00  9.7643251989714193e-07 -2.1779568365020863e-06 0.0000000000000000e+00  9.6176387052889781e-07 -2.1530118280128115e-06 0.0000000000000000e+00  9.3129591127755721e-07 -2.1362473355891964e-06 0.0000000000000000e+00  8.8473201904326896e-07 -2.1106705686779748e-06 0.0000000000000000e+00  8.2183675824811273e-07 -2.0922156492031367e-06 0.0000000000000000e+00  7.4094768514476327e-07 -2.0662468281471176e-06 0.0000000000000000e+00  6.4261817116724184e-07 -2.0431920872043136e-06 0.0000000000000000e+00  5.2271374666376084e-07 -2.0194894822278909e-06 0.0000000000000000e+00  3.8809310542351353e-07 -1.9940730237145830e-06 0.0000000000000000e+00  2.3059189346773132e-07 -1.9694259795518009e-06 0.0000000000000000e+00  5.2481571057397585e-08 -1.9393287316547568e-06 0.0000000000000000e+00  -1.4771270683560402e-07 -1.9146934875384456e-06 0.0000000000000000e+00  -3.7007951341833387e-07 -1.8828774173576649e-06 0.0000000000000000e+00  -6.1602790173283067e-07 -1.8558675862777004e-06 0.0000000000000000e+00  -8.8576455343509691e-07 -1.8231266577526563e-06 0.0000000000000000e+00  -1.1802739209811566e-06 -1.7942076748994867e-06 0.0000000000000000e+00  -1.5006312456163215e-06 -1.7595683821966740e-06 0.0000000000000000e+00  -1.8462883717792162e-06 -1.7298925282007393e-06 0.0000000000000000e+00  -2.2195953119545832e-06 -1.6917325396601036e-06 0.0000000000000000e+00  -2.6210411429858633e-06 -1.6609001906989817e-06 0.0000000000000000e+00  -3.0503746095727914e-06 -1.6227196713463321e-06 0.0000000000000000e+00  -3.5079783529848968e-06 -1.5910691823558044e-06 0.0000000000000000e+00  -3.9948941392675232e-06 -1.5514772977929236e-06 0.0000000000000000e+00  -4.5113927007793227e-06 -1.5183437461308268e-06 0.0000000000000000e+00  -5.0592080291348019e-06 -1.4776942813515286e-06 0.0000000000000000e+00  -5.6359399319709935e-06 -1.4418804025488070e-06 0.0000000000000000e+00  -6.2493457036059834e-06 -1.4065224299316864e-06 0.0000000000000000e+00  -6.8855137909710138e-06 -1.3693397504554434e-06 0.0000000000000000e+00  -7.5577647600322609e-06 -1.3333939541430136e-06 0.0000000000000000e+00  -8.2615060274815234e-06 -1.2898784063993756e-06 0.0000000000000000e+00  -8.9956959864990572e-06 -1.2669841291727268e-06 0.0000000000000000e+00  -9.7563522401904925e-06 -6.5406207509021015e-07 0.0000000000000000e+00  -9.7616902894000781e-06 5.5432426449531222e-07 0.0000000000000000e+00  -9.0029816560248608e-06 1.1798109692118139e-06 0.0000000000000000e+00  -8.2705998270212101e-06 1.2084853549701898e-06 0.0000000000000000e+00  -7.5652894278727142e-06 1.2607950314948160e-06 0.0000000000000000e+00  -6.8899017783972129e-06 1.2995389570467509e-06 0.0000000000000000e+00  -6.2519914961791120e-06 1.3399660231101807e-06 0.0000000000000000e+00  -5.6374093246772443e-06 1.3759171786903646e-06 0.0000000000000000e+00  -5.0596851991461642e-06 1.4111143337794900e-06 0.0000000000000000e+00  -4.5112697007915981e-06 1.4531775824851643e-06 0.0000000000000000e+00  -3.9940012326740337e-06 1.4821251252806442e-06 0.0000000000000000e+00  -3.5062890466727628e-06 1.5234728340027182e-06 0.0000000000000000e+00  -3.0484930780892936e-06 1.5519870544315908e-06 0.0000000000000000e+00  -2.6195161091688234e-06 1.5912987810168712e-06 0.0000000000000000e+00  -2.2188180778979147e-06 1.6184710855982213e-06 0.0000000000000000e+00  -1.8455095066714012e-06 1.6555519419953858e-06 0.0000000000000000e+00  -1.4992883488499864e-06 1.6818348480295182e-06 0.0000000000000000e+00  -1.1790290583647407e-06 1.7174612617577140e-06 0.0000000000000000e+00  -8.8471604119360837e-07 1.7433313042247824e-06 0.0000000000000000e+00  -6.1524351177948231e-07 1.7773695019049775e-06 0.0000000000000000e+00  -3.6988805778366554e-07 1.8016891325230985e-06 0.0000000000000000e+00  -1.4749629534217910e-07 1.8336839242393823e-06 0.0000000000000000e+00  5.2422872991936069e-08 1.8570155809191590e-06 0.0000000000000000e+00  2.3055450779621910e-07 1.8874008333953955e-06 0.0000000000000000e+00  3.8818095421634745e-07 1.9122999256940257e-06 0.0000000000000000e+00  5.2268094508405659e-07 1.9370939683161773e-06 0.0000000000000000e+00  6.4216666796899179e-07 1.9617507550158177e-06 0.0000000000000000e+00  7.4059563939878630e-07 1.9848424376171538e-06 0.0000000000000000e+00  8.2153407359421545e-07 2.0110256726919847e-06 0.0000000000000000e+00  8.8509647163200306e-07 2.0310833307329501e-06 0.0000000000000000e+00  9.3202983061956546e-07 2.0562293480261899e-06 0.0000000000000000e+00  9.6295323609699514e-07 2.0747086933127571e-06 0.0000000000000000e+00  9.7856933815278461e-07 2.0974879085528656e-06 0.0000000000000000e+00  9.8008790338180328e-07 2.1151698388328860e-06 0.0000000000000000e+00  9.6491934338507244e-07 2.1327692525060742e-06 0.0000000000000000e+00  9.4082041689332944e-07 2.1488235645543034e-06 0.0000000000000000e+00  9.0093086266328637e-07 2.1641535053861578e-06 0.0000000000000000e+00  8.4852726694537657e-07 2.1812305674307179e-06 0.0000000000000000e+00  7.8384640891934713e-07 2.1929942909856197e-06 0.0000000000000000e+00  7.0718021917789419e-07 2.2097825604054144e-06 0.0000000000000000e+00  6.1983115321622815e-07 2.2239501599263546e-06 0.0000000000000000e+00  5.1995039142121724e-07 2.2399036621796687e-06 0.0000000000000000e+00  4.1438993954659807e-07 2.2570146557655650e-06 0.0000000000000000e+00  2.9690194322678966e-07 2.2757473813994560e-06 0.0000000000000000e+00  1.7720074326517345e-07 2.3016929899091402e-06 0.0000000000000000e+00  3.4041144011852611e-08 2.3224186622739196e-06 0.0000000000000000e+00  -1.1823574546415070e-08 2.3158212141956273e-06 0.0000000000000000e+00  1.0465608742446486e-07 1.7232305905367422e-06 0.0000000000000000e+00  -2.3362919019912125e-07 -3.0352313759125257e-08 0.0000000000000000e+00  -8.6298507244222007e-06 -5.8625539977138128e-08 0.0000000000000000e+00  -7.2735055469018414e-06 -6.1966909974875526e-08 0.0000000000000000e+00  -5.3182268162437482e-06 -4.9416029110446614e-08 0.0000000000000000e+00  1.1875071561575560e-07 -2.8699665012148886e-08 0.0000000000000000e+00  -4.2448901373053951e-06 -3.3437076570330836e-08 0.0000000000000000e+00  3.5750535480356005e-07 -1.4106190692629404e-08 0.0000000000000000e+00  -3.2697555983101700e-06 -3.4549030571374634e-08 0.0000000000000000e+00  6.7135203830036246e-07 -2.3803847948204591e-08 0.0000000000000000e+00  8.1779798769119406e-07 -5.0474820110980483e-08 0.0000000000000000e+00  -2.4110350979758286e-06 -3.6006467009220217e-08 0.0000000000000000e+00  9.8415621821251806e-07 -1.1613173584594448e-08 0.0000000000000000e+00  -1.0236693811920048e-06 -3.9206600802802217e-08 0.0000000000000000e+00  9.2019100414046207e-07 -1.5894544073843076e-08 0.0000000000000000e+00  9.5326889423384417e-07 -3.9449512259864298e-08 0.0000000000000000e+00  -4.8409108460420883e-07 -4.0148299721262401e-08 0.0000000000000000e+00  -1.6640885984334359e-06 -3.7824681551033655e-08 0.0000000000000000e+00  8.6007252615788430e-07 -3.9810182306752951e-08 0.0000000000000000e+00  -3.9148820959690828e-08 -4.0862750960379581e-08 0.0000000000000000e+00  7.0742087065639124e-07 -1.4160037300607906e-08 0.0000000000000000e+00  3.1134077047036843e-07 -6.5413360131009422e-08 0.0000000000000000e+00  5.4019488645051894e-07 -4.0349726130648962e-08 0.0000000000000000e+00  9.6626559865811591e-07 -4.6030223717085332e-08 0.0000000000000000e+00  -6.2961879613762247e-06 -3.0582484364279652e-08 0.0000000000000000e+00  5.1879955110304873e-07 -5.0900592581843617e-08 0.0000000000000000e+00  -7.9345079715544722e-06 3.8744104397067440e-07 0.0000000000000000e+00  -3.1855468224781143e-08 8.2896672496735717e-07 0.0000000000000000e+00  -3.7425497085917369e-06 4.1313257361379561e-07 0.0000000000000000e+00  -4.7774902439075711e-06 3.9360263120880595e-07 0.0000000000000000e+00  2.4752511942966146e-07 -8.6092615217205186e-07 0.0000000000000000e+00  7.4729089758088507e-07 -7.0819720690511154e-07 0.0000000000000000e+00  -1.3312548092624611e-06 4.6710895433173666e-07 0.0000000000000000e+00  -2.8262430988870896e-06 4.3225155214962523e-07 0.0000000000000000e+00  9.7511767679628059e-07 -6.5788791856685900e-07 0.0000000000000000e+00  -7.4210123832613108e-07 4.8401235566868865e-07 0.0000000000000000e+00  8.7517737030359436e-07 -6.9400515646620663e-07 0.0000000000000000e+00  9.1414957485124461e-07 -6.4605057599170121e-07 0.0000000000000000e+00  -2.5075181738594857e-07 5.0007635320322350e-07 0.0000000000000000e+00  -2.0241226842779635e-06 4.5006411005087362e-07 0.0000000000000000e+00  7.8844020418755838e-07 -7.6412875509777273e-07 0.0000000000000000e+00  1.4921919970684885e-07 5.1545866615369240e-07 0.0000000000000000e+00  -1.4384520323586058e-07 -6.6594371793658172e-07 0.0000000000000000e+00  -1.5359198757177018e-07 6.0805834454061119e-07 0.0000000000000000e+00  -9.2182921245005475e-06 -3.4008603736039811e-07 0.0000000000000000e+00  -1.9071794818894709e-08 -9.6496920660815396e-07 0.000000000000000