<?xml version="1.0"?>
<VTKFile type="UnstructuredGrid"  version="0.1"  >
<UnstructuredGrid>
<Piece  NumberOfPoints="1419" NumberOfCells="2698">
<Points>
<DataArray  type="Float64"  NumberOfComponents="3"  format="ascii">0 0 0  0 0.41 0  2.5 0 0  2.5 0.41 0  0.5999999621296385 0.1900000050882416 0  0.5999999621801111 0.2099999945138138 0  0.25 0.2 0  0.15 0.2 0  0.2489897948556636 0.21 0  0.2489897948556636 0.19 0  0.5999999620939754 0.1999999998025164 0  0 0.3807142857143437 0  0 0.3514285714286952 0  0 0.3221428571430699 0  0 0.29285714285744 0  0 0.2635714285718054 0  0 0.2342857142861561 0  0 0.2050000000005308 0  0 0.175714285714732 0  0 0.1464285714289574 0  0 0.1171428571431897 0  0 0.08785714285737878 0  0 0.05857142857161107 0  0 0.02928571428580012 0  0.03015443760436003 0 0  0.06140001986583606 0 0  0.09377624077125973 0 0  0.1273239957535082 0 0  0.1620856860351972 0 0  0.1981052433264291 0 0  0.235428184091502 0 0  0.2741016576309132 0 0  0.3141745521465447 0 0  0.3556974926295285 0 0  0.3987229542472677 0 0  0.4433053055141081 0 0  0.4895008759286886 0 0  0.5373680609405097 0 0  0.5869673343216626 0 0  0.6383613676634521 0 0  0.6916151138468254 0 0  0.7467958595648856 0 0  0.8039733463919316 0 0  0.8632198139502143 0 0  0.9246101326867038 0 0  0.9882218810934433 0 0  1.054135445558498 0 0  1.122434100542598 0 0  1.193204177141305 0 0  1.266535089879536 0 0  1.342519516046404 0 0  1.421253448503939 0 0  1.502836389106271 0 0  1.587371439758838 0 0  1.674965418777374 0 0  1.765729001825544 0 0  1.859776908880082 0 0  1.957227977487062 0 0  2.058205329869943 0 0  2.162836591189951 0 0  2.271253957290865 0 0  2.383594446803425 0 0  2.5 0.1024999999997612 0  2.5 0.2049999999994743 0  2.5 0.3074999999997183 0  2.383594446803656 0.41 0  2.271253957291315 0.41 0  2.162836591190598 0.41 0  2.058205329870775 0.41 0  1.957227977488067 0.41 0  1.859776908881246 0.41 0  1.765729001826854 0.41 0  1.674965418778818 0.41 0  1.58737143976041 0.41 0  1.502836389107956 0.41 0  1.421253448505726 0.41 0  1.342519516048286 0.41 0  1.266535089881505 0.41 0  1.193204177143353 0.41 0  1.122434100544716 0.41 0  1.05413544556068 0.41 0  0.9882218810956305 0.41 0  0.9246101326886647 0.41 0  0.8632198139519631 0.41 0  0.8039733463934788 0.41 0  0.7467958595662458 0.41 0  0.6916151138480078 0.41 0  0.6383613676644679 0.41 0  0.5869673343225223 0.41 0  0.5373680609412221 0.41 0  0.4895008759292634 0.41 0  0.4433053055145528 0.41 0  0.3987229542475914 0.41 0  0.3556974926297398 0.41 0  0.3141745521466497 0.41 0  0.2741016576310038 0.41 0  0.2354281840915826 0.41 0  0.1981052433265003 0.41 0  0.1620856860352591 0.41 0  0.1273239957535623 0.41 0  0.09377624077128965 0.41 0  0.06140001986584975 0.41 0  0.03015443760436654 0.41 0  0.2497468076502589 0.2050254481002335 0  0.2497468076502614 0.1949745518997913 0  0.2469965252529372 0.1829317073451959 0  0.2439893735792749 0.1762316384219906 0  0.2400332147834255 0.1700443375285386 0  0.2352133972704371 0.1645032867342007 0  0.2296339016332438 0.1597280261969788 0  0.2234150974217223 0.1558215752574715 0  0.2166911463437691 0.1528682099456123 0  0.2096071079204251 0.1509316448471593 0  0.2023158100364996 0.1500536585536553 0  0.194974551899914 0.1502531923497262 0  0.1877417105387872 0.1515259415822739 0  0.1807733240461124 0.153844448527136 0  0.1742197252835808 0.15715869474974 0  0.1682222986673531 0.1613971801805478 0  0.162910430003803 0.1664684656256651 0  0.1583987151779087 0.1722631454351573 0  0.1547844879126891 0.178656207771761 0  0.1521457199348551 0.1855097315605723 0  0.1505393388476355 0.1926758619366523 0  0.1505393388476328 0.2073241380633295 0  0.1521457199348437 0.2144902684393899 0  0.1547844879126531 0.221343792228163 0  0.1583987151778488 0.2277368545647528 0  0.1629104300036858 0.2335315343742052 0  0.1682222986671726 0.2386028198193036 0  0.1742197252833576 0.2428413052501257 0  0.1807733240458683 0.2461555514727623 0  0.1877417105384929 0.2484740584176516 0  0.1949745518995776 0.2497468076502398 0  0.202315810036185 0.2499463414463592 0  0.2096071079201568 0.2490683551528932 0  0.2166911463435495 0.2471317900544655 0  0.2234150974215506 0.2441784247426195 0  0.2296339016331197 0.2402719738031125 0  0.2352133972703547 0.2354967132658811 0  0.2400332147833751 0.2299556624715287 0  0.2439893735792577 0.2237683615780412 0  0.246996525252926 0.2170682926548348 0  0.2564580978112087 0.20999998939622 0  0.2639263994397478 0.2099999890276175 0  0.2713947021325458 0.2099999891388847 0  0.2788630049665532 0.2099999892434787 0  0.2863313078045877 0.2099999892969488 0  0.293799610581471 0.2099999893597329 0  0.3012679133114339 0.209999989434316 0  0.3087362159837546 0.2099999895204774 0  0.3162045186097235 0.209999989616843 0  0.3236728211836308 0.2099999897078191 0  0.3311411237053293 0.2099999898166392 0  0.3386094261739451 0.2099999899121532 0  0.3460777285854726 0.2099999900177993 0  0.3535460309445005 0.2099999901187025 0  0.3610143332386449 0.209999990219702 0  0.3684826354788986 0.209999990320657 0  0.3759509376573016 0.2099999904117342 0  0.3834192397737575 0.2099999905166793 0  0.3908875418275996 0.2099999906064169 0  0.3983558438162262 0.2099999907122849 0  0.4058241457403023 0.2099999908068254 0  0.4132924475940271 0.2099999909124555 0  0.4207607493836815 0.2099999910159317 0  0.4282290510924771 0.2099999911246648 0  0.4356973527320767 0.2099999912354899 0  0.4431656542923546 0.2099999913441143 0  0.4506339557723672 0.2099999914639334 0  0.4581022571704826 0.2099999915777241 0  0.4655705584794985 0.2099999917060438 0  0.4730388597000282 0.2099999918243593 0  0.4805071608253235 0.2099999919608614 0  0.4879754618513429 0.2099999920863082 0  0.4954437627786128 0.2099999922306792 0  0.5029120635963178 0.2099999923692362 0  0.5103803642989493 0.2099999925227505 0  0.5178486648877582 0.2099999926640881 0  0.5253169653557719 0.209999992825241 0  0.5327852656990841 0.2099999929761608 0  0.5402535659087319 0.2099999931514782 0  0.5477218659807056 0.2099999933134341 0  0.5551901659100658 0.2099999934917576 0  0.5626584656964146 0.2099999936751946 0  0.5701267653142877 0.2099999938571188 0  0.5775950647756426 0.2099999940498199 0  0.5850633640691312 0.2099999942406361 0  0.5925316632139513 0.2099999944710743 0  0.5999999620818061 0.2049999971262587 0  0.5999999620632932 0.1950000024799471 0  0.5925316631717282 0.1900000051677594 0  0.5850633640369528 0.1900000054280493 0  0.5775950647533182 0.190000005639416 0  0.5701267652988731 0.1900000058506034 0  0.5626584656874731 0.1900000060411121 0  0.555190165907998 0.1900000062249015 0  0.5477218659838266 0.1900000064039553 0  0.5402535659134997 0.1900000065551329 0  0.5327852657066036 0.1900000067286668 0  0.5253169653667676 0.1900000068699145 0  0.5178486648989651 0.1900000070345181 0  0.5103803643086643 0.190000007166167 0  0.5029120636022885 0.1900000073180155 0  0.4954437627846561 0.1900000074395967 0  0.487975461860289 0.1900000075822696 0  0.4805071608335583 0.1900000076985532 0  0.4730388597074987 0.1900000078355855 0  0.4655705584861632 0.1900000079463778 0  0.458102257174519 0.1900000080749006 0  0.4506339557767877 0.1900000081790415 0  0.4431656542961238 0.1900000083017045 0  0.4356973527355706 0.190000008404077 0  0.4282290510952749 0.1900000085184835 0  0.4207607493847725 0.1900000086262286 0  0.4132924475944668 0.1900000087321012 0  0.4058241457392718 0.1900000088359681 0  0.3983558438162506 0.190000008933746 0  0.390887541828409 0.1900000090397825 0  0.38341923977603 0.1900000091360971 0  0.3759509376607283 0.1900000092390053 0  0.3684826354851456 0.1900000093306722 0  0.3610143332495121 0.1900000094246601 0  0.353546030959762 0.190000009516426 0  0.3460777286043814 0.1900000096038333 0  0.3386094261940711 0.1900000096909244 0  0.3311411237250987 0.1900000097690302 0  0.3236728211990488 0.1900000098560952 0  0.3162045186170289 0.1900000099341269 0  0.3087362159783049 0.190000010022347 0  0.3012679132876265 0.1900000101127266 0  0.293799610538254 0.1900000102106191 0  0.2863313077404445 0.1900000103141541 0  0.2788630048848776 0.1900000104280684 0  0.271394702043782 0.1900000106157342 0  0.2639263993586509 0.1900000108177942 0  0.2564580977220777 0.1900000105004642 0  0.2607803149251657 0.200072713492977 0  0.5887803444403775 0.2001272384597894 0  0.5745072130616004 0.2002044432321953 0  0.5511891236370916 0.2001122607959831 0  0.2751288534992671 0.1999999998558691 0  0.5365194158646996 0.1999999998537551 0  0.2894621242907377 0.1998691685678573 0  0.5215828151826525 0.1999999998485732 0  0.31277898514019 0.1998657884514926 0  0.327406972486608 0.1999999997863524 0  0.5066462140042829 0.1999999998433759 0  0.3650630795251654 0.1998660177611658 0  0.4767730103145555 0.1999999998296231 0  0.3417402425481083 0.1998691685731439 0  0.3796850887542509 0.1999999998266117 0  0.4618364078741216 0.1999999998257825 0  0.4917096123692342 0.1999999998350971 0  0.394621692860843 0.1999999998232115 0  0.4468998050790665 0.1999999998219636 0  0.4089549618763703 0.1998691685778734 0  0.4322718197257912 0.200127450975649 0  0.4201487199453124 0.199996619729021 0  0.3528922761155644 0.2000185701530149 0  0.5633122203563729 0.1999814295172731 0  0.3006558837749485 0.1999966196789308 0  0.5815926197707713 0.1966545300577134 0  0.2677053790045463 0.1964246517799718 0  0.5290511155856956 0.1970915845582449 0  0.5439877160018101 0.1970915844692109 0  0.2825131271673236 0.20354789566968 0  0.319938669931589 0.2029084141482332 0  0.484241311389775 0.19709158478938 0  0.5141145146504347 0.1970915846424245 0  0.3722167866040804 0.2029084143890573 0  0.4693047091382693 0.1970915848590449 0  0.3348752749782456 0.2029084142224507 0  0.3871533908366128 0.2029084144451946 0  0.4543681065165143 0.1970915849249269 0  0.4991779132387771 0.1970915847184465 0  0.4020059655939623 0.2035478962049751 0  0.4394315035547122 0.1970915849890263 0  0.2550657436942068 0.2034088095423364 0  0.254890848065604 0.1966940339842303 0  0.5946539154908023 0.2024302958
[...]
<PointData  Vectors="f_44-1"> 
<DataArray  type="Float64"  Name="f_44-1"  NumberOfComponents="3" format="ascii">0.0000000000000000e+00 0.0000000000000000e+00 0.0000000000000000e+00  0.0000000000000000e+00 0.0000000000000000e+00 0.0000000000000000e+00  0.0000000000000000e+00 0.0000000000000000e+00 0.0000000000000000e+00  0.0000000000000000e+00 0.0000000000000000e+00 0.0000000000000000e+00  -1.3032768276291606e-08 1.3233582825717596e-09 0.0000000000000000e+00  -1.3017620975062413e-08 -1.4443172276891335e-09 0.0000000000000000e+00  0.0000000000000000e+00 0.0000000000000000e+00 0.0000000000000000e+00  0.0000000000000000e+00 0.0000000000000000e+00 0.0000000000000000e+00  0.0000000000000000e+00 0.0000000000000000e+00 0.0000000000000000e+00  0.0000000000000000e+00 0.0000000000000000e+00 0.0000000000000000e+00  -1.3055676223099425e-08 -6.0194353200545261e-11 0.0000000000000000e+00  0.0000000000000000e+00 0.0000000000000000e+00 0.0000000000000000e+00  0.0000000000000000e+00 0.0000000000000000e+00 0.0000000000000000e+00  0.0000000000000000e+00 0.0000000000000000e+00 0.0000000000000000e+00  0.0000000000000000e+00 0.0000000000000000e+00 0.0000000000000000e+00  0.0000000000000000e+00 0.0000000000000000e+00 0.0000000000000000e+00  0.0000000000000000e+00 0.0000000000000000e+00 0.0000000000000000e+00  0.0000000000000000e+00 0.0000000000000000e+00 0.0000000000000000e+00  0.0000000000000000e+00 0.0000000000000000e+00 0.0000000000000000e+00  0.0000000000000000e+00 0.0000000000000000e+00 0.0000000000000000e+00  0.0000000000000000e+00 0.0000000000000000e+00 0.0000000000000000e+00  0.0000000000000000e+00 0.0000000000000000e+00 0.0000000000000000e+00  0.0000000000000000e+00 0.0000000000000000e+00 0.0000000000000000e+00  0.0000000000000000e+00 0.0000000000000000e+00 0.0000000000000000e+00  0.0000000000000000e+00 0.0000000000000000e+00 0.0000000000000000e+00  0.0000000000000000e+00 0.0000000000000000e+00 0.0000000000000000e+00  0.0000000000000000e+00 0.0000000000000000e+00 0.0000000000000000e+00  0.0000000000000000e+00 0.0000000000000000e+00 0.0000000000000000e+00  0.0000000000000000e+00 0.0000000000000000e+00 0.0000000000000000e+00  0.0000000000000000e+00 0.0000000000000000e+00 0.0000000000000000e+00  0.0000000000000000e+00 0.0000000000000000e+00 0.0000000000000000e+00  0.0000000000000000e+00 0.0000000000000000e+00 0.0000000000000000e+00  0.0000000000000000e+00 0.0000000000000000e+00 0.0000000000000000e+00  0.0000000000000000e+00 0.0000000000000000e+00 0.0000000000000000e+00  0.0000000000000000e+00 0.0000000000000000e+00 0.0000000000000000e+00  0.0000000000000000e+00 0.0000000000000000e+00 0.0000000000000000e+00  0.0000000000000000e+00 0.0000000000000000e+00 0.0000000000000000e+00  0.0000000000000000e+00 0.0000000000000000e+00 0.0000000000000000e+00  0.0000000000000000e+00 0.0000000000000000e+00 0.0000000000000000e+00  0.0000000000000000e+00 0.0000000000000000e+00 0.0000000000000000e+00  0.0000000000000000e+00 0.0000000000000000e+00 0.0000000000000000e+00  0.0000000000000000e+00 0.0000000000000000e+00 0.0000000000000000e+00  0.0000000000000000e+00 0.0000000000000000e+00 0.0000000000000000e+00  0.0000000000000000e+00 0.0000000000000000e+00 0.0000000000000000e+00  0.0000000000000000e+00 0.0000000000000000e+00 0.0000000000000000e+00  0.0000000000000000e+00 0.0000000000000000e+00 0.0000000000000000e+00  0.0000000000000000e+00 0.0000000000000000e+00 0.0000000000000000e+00  0.0000000000000000e+00 0.0000000000000000e+00 0.0000000000000000e+00  0.0000000000000000e+00 0.0000000000000000e+00 0.0000000000000000e+00  0.0000000000000000e+00 0.0000000000000000e+00 0.0000000000000000e+00  0.0000000000000000e+00 0.0000000000000000e+00 0.0000000000000000e+00  0.0000000000000000e+00 0.0000000000000000e+00 0.0000000000000000e+00  0.0000000000000000e+00 0.0000000000000000e+00 0.0000000000000000e+00  0.0000000000000000e+00 0.0000000000000000e+00 0.0000000000000000e+00  0.0000000000000000e+00 0.0000000000000000e+00 0.0000000000000000e+00  0.0000000000000000e+00 0.0000000000000000e+00 0.0000000000000000e+00  0.0000000000000000e+00 0.0000000000000000e+00 0.0000000000000000e+00  0.0000000000000000e+00 0.0000000000000000e+00 0.0000000000000000e+00  0.0000000000000000e+00 0.0000000000000000e+00 0.0000000000000000e+00  0.0000000000000000e+00 0.0000000000000000e+00 0.0000000000000000e+00  0.0000000000000000e+00 0.0000000000000000e+00 0.0000000000000000e+00  0.0000000000000000e+00 0.0000000000000000e+00 0.0000000000000000e+00  0.0000000000000000e+00 0.0000000000000000e+00 0.0000000000000000e+00  0.0000000000000000e+00 0.0000000000000000e+00 0.0000000000000000e+00  0.0000000000000000e+00 0.0000000000000000e+00 0.0000000000000000e+00  0.0000000000000000e+00 0.0000000000000000e+00 0.0000000000000000e+00  0.0000000000000000e+00 0.0000000000000000e+00 0.0000000000000000e+00  0.0000000000000000e+00 0.0000000000000000e+00 0.0000000000000000e+00  0.0000000000000000e+00 0.0000000000000000e+00 0.0000000000000000e+00  0.0000000000000000e+00 0.0000000000000000e+00 0.0000000000000000e+00  0.0000000000000000e+00 0.0000000000000000e+00 0.0000000000000000e+00  0.0000000000000000e+00 0.0000000000000000e+00 0.0000000000000000e+00  0.0000000000000000e+00 0.0000000000000000e+00 0.0000000000000000e+00  0.0000000000000000e+00 0.0000000000000000e+00 0.0000000000000000e+00  0.0000000000000000e+00 0.0000000000000000e+00 0.0000000000000000e+00  0.0000000000000000e+00 0.0000000000000000e+00 0.0000000000000000e+00  0.0000000000000000e+00 0.0000000000000000e+00 0.0000000000000000e+00  0.0000000000000000e+00 0.0000000000000000e+00 0.0000000000000000e+00  0.0000000000000000e+00 0.0000000000000000e+00 0.0000000000000000e+00  0.0000000000000000e+00 0.0000000000000000e+00 0.0000000000000000e+00  0.0000000000000000e+00 0.0000000000000000e+00 0.0000000000000000e+00  0.0000000000000000e+00 0.0000000000000000e+00 0.0000000000000000e+00  0.0000000000000000e+00 0.0000000000000000e+00 0.0000000000000000e+00  0.0000000000000000e+00 0.0000000000000000e+00 0.0000000000000000e+00  0.0000000000000000e+00 0.0000000000000000e+00 0.0000000000000000e+00  0.0000000000000000e+00 0.0000000000000000e+00 0.0000000000000000e+00  0.0000000000000000e+00 0.0000000000000000e+00 0.0000000000000000e+00  0.0000000000000000e+00 0.0000000000000000e+00 0.0000000000000000e+00  0.0000000000000000e+00 0.0000000000000000e+00 0.0000000000000000e+00  0.0000000000000000e+00 0.0000000000000000e+00 0.0000000000000000e+00  0.0000000000000000e+00 0.0000000000000000e+00 0.0000000000000000e+00  0.0000000000000000e+00 0.0000000000000000e+00 0.0000000000000000e+00  0.0000000000000000e+00 0.0000000000000000e+00 0.0000000000000000e+00  0.0000000000000000e+00 0.0000000000000000e+00 0.0000000000000000e+00  0.0000000000000000e+00 0.0000000000000000e+00 0.0000000000000000e+00  0.0000000000000000e+00 0.0000000000000000e+00 0.0000000000000000e+00  0.0000000000000000e+00 0.0000000000000000e+00 0.0000000000000000e+00  0.0000000000000000e+00 0.0000000000000000e+00 0.0000000000000000e+00  0.0000000000000000e+00 0.0000000000000000e+00 0.0000000000000000e+00  0.0000000000000000e+00 0.0000000000000000e+00 0.0000000000000000e+00  0.0000000000000000e+00 0.0000000000000000e+00 0.0000000000000000e+00  0.0000000000000000e+00 0.0000000000000000e+00 0.0000000000000000e+00  0.0000000000000000e+00 0.0000000000000000e+00 0.0000000000000000e+00  0.0000000000000000e+00 0.0000000000000000e+00 0.0000000000000000e+00  0.0000000000000000e+00 0.0000000000000000e+00 0.0000000000000000e+00  0.0000000000000000e+00 0.0000000000000000e+00 0.0000000000000000e+00  0.0000000000000000e+00 0.0000000000000000e+00 0.0000000000000000e+00  0.0000000000000000e+00 0.0000000000000000e+00 0.0000000000000000e+00  0.0000000000000000e+00 0.0000000000000000e+00 0.0000000000000000e+00  0.0000000000000000e+00 0.0000000000000000e+00 0.0000000000000000e+00  0.0000000000000000e+00 0.0000000000000000e+00 0.0000000000000000e+00  0.0000000000000000e+00 0.0000000000000000e+00 0.0000000000000000e+00  0.0000000000000000e+00 0.0000000000000000e+00 0.0000000000000000e+00  0.0000000000000000e+00 0.0000000000000000e+00 0.0000000000000000e+00  0.0000000000000000e+00 0.0000000000000000e+00 0.0000000000000000e+00  0.0000000000000000e+00 0.0000000000000000e+00 0.0000000000000000e+00  0.0000000000000000e+00 0.0000000000000000e+00 0.0000000000000000e+00  0.0000000000000000e+00 0.0000000000000000e+00 0.0000000000000000e+00  0.0000000000000000e+00 0.0000000000000000e+00 0.0000000000000000e+00  0.0000000000000000e+00 0.0000000000000000e+00 0.0000000000000000e+00  0.0000000000000000e+00 0.0000000000000000e+00 0.0000000000000000e+00  0.0000000000000000e+00 0.0000000000000000e+00 0.0000000000000000e+00  0.0000000000000000e+00 0.0000000000000000e+00 0.0000000000000000e+00  0.0000000000000000e+00 0.0000000000000000e+00 0.0000000000000000e+00  0.0000000000000000e+00 0.0000000000000000e+00 0.0000000000000000e+00  0.0000000000000000e+00 0.0000000000000000e+00 0.0000000000000000e+00  0.0000000000000000e+00 0.0000000000000000e+00 0.0000000000000000e+00  0.0000000000000000e+00 0.0000000000000000e+00 0.0000000000000000e+00  0.0000000000000000e+00 0.0000000000000000e+00 0.0000000000000000e+00  0.0000000000000000e+00 0.0000000000000000e+00 0.0000000000000000e+00  0.0000000000000000e+00 0.0000000000000000e+00 0.0000000000000000e+00  0.0000000000000000e+00 0.0000000000000000e+00 0.0000000000000000e+00  0.0000000000000000e+00 0.0000000000000000e+00 0.0000000000000000e+00  0.0000000000000000e+00 0.0000000000000000e+00 0.0000000000000000e+00  0.0000000000000000e+00 0.0000000000000000e+00 0.0000000000000000e+00  0.0000000000000000e+00 0.0000000000000000e+00 0.0000000000000000e+00  0.0000000000000000e+00 0.0000000000000000e+00 0.0000000000000000e+00  0.0000000000000000e+00 0.0000000000000000e+00 0.0000000000000000e+00  0.0000000000000000e+00 0.0000000000000000e+00 0.0000000000000000e+00  0.0000000000000000e+00 0.0000000000000000e+00 0.0000000000000000e+00  0.0000000000000000e+00 0.0000000000000000e+00 0.0000000000000000e+00  0.0000000000000000e+00 0.0000000000000000e+00 0.0000000000000000e+00  0.0000000000000000e+00 0.0000000000000000e+00 0.0000000000000000e+00  1.3290785583424044e-10 -2.6221215101574161e-09 0.0000000000000000e+00  -6.0730202618287478e-11 -2.7194598205427463e-09 0.0000000000000000e+00  1.2910636262458724e-11 -2.6985250658865259e-09 0.0000000000000000e+00  1.2540959051790954e-10 -2.6813357313972739e-09 0.0000000000000000e+00  2.4189382472864274e-10 -2.6769174063071722e-09 0.0000000000000000e+00  3.4575637006647194e-10 -2.6710368005033871e-09 0.0000000000000000e+00  4.3925174042982290e-10 -2.6619861345988340e-09 0.0000000000000000e+00  5.2079299691518070e-10 -2.6487884017019483e-09 0.0000000000000000e+00  5.9114439656695535e-10 -2.6319879647443053e-09 0.0000000000000000e+00  6.4934064574175677e-10 -2.6143734603782491e-09 0.0000000000000000e+00  6.9446340445810475e-10 -2.5914642553815330e-09 0.0000000000000000e+00  7.2611710912649088e-10 -2.5699894773430701e-09 0.0000000000000000e+00  7.4268788712320092e-10 -2.5451590639992146e-09 0.0000000000000000e+00  7.4442876256825233e-10 -2.5207671281321617e-09 0.0000000000000000e+00  7.2816263674826716e-10 -2.4954460274052635e-09 0.0000000000000000e+00  6.9541292251455561e-10 -2.4698325312381751e-09 0.0000000000000000e+00  6.4385879296027445e-10 -2.4463150815622893e-09 0.0000000000000000e+00  5.7281178207015016e-10 -2.4189006341298288e-09 0.0000000000000000e+00  4.8155711534639761e-10 -2.3951140225842609e-09 0.0000000000000000e+00  3.6899283233926923e-10 -2.3666201965808844e-09 0.0000000000000000e+00  2.3486238516346720e-10 -2.3408660183482742e-09 0.0000000000000000e+00  7.7354655774177039e-11 -2.3116140904926848e-09 0.0000000000000000e+00  -1.0231865419072375e-10 -2.2827995172081252e-09 0.0000000000000000e+00  -3.0846206339361637e-10 -2.2518559020887589e-09 0.0000000000000000e+00  -5.3834872270748022e-10 -2.2202731126818831e-09 0.0000000000000000e+00  -7.9462893159059663e-10 -2.1891496753740001e-09 0.0000000000000000e+00  -1.0774826522157219e-09 -2.1547184189977658e-09 0.0000000000000000e+00  -1.3872160283636264e-09 -2.1221083628455650e-09 0.0000000000000000e+00  -1.7254907772442564e-09 -2.0854706447218309e-09 0.0000000000000000e+00  -2.0918230120188549e-09 -2.0518929204276882e-09 0.0000000000000000e+00  -2.4875391594619995e-09 -2.0135754707840968e-09 0.0000000000000000e+00  -2.9131814854248188e-09 -1.9787129588831230e-09 0.0000000000000000e+00  -3.3680383034468059e-09 -1.9392929560451417e-09 0.0000000000000000e+00  -3.8540601258469724e-09 -1.9021898309609182e-09 0.0000000000000000e+00  -4.3716522062842245e-09 -1.8617470268270800e-09 0.0000000000000000e+00  -4.9198131370350204e-09 -1.8251523306607480e-09 0.0000000000000000e+00  -5.4991896597810859e-09 -1.7845029069130944e-09 0.0000000000000000e+00  -6.1098434266090192e-09 -1.7475363040927470e-09 0.0000000000000000e+00  -6.7524257894952338e-09 -1.7061174174686470e-09 0.0000000000000000e+00  -7.4268279058031996e-09 -1.6690452603712996e-09 0.0000000000000000e+00  -8.1329197545807004e-09 -1.6296466243375270e-09 0.0000000000000000e+00  -8.8698630325016554e-09 -1.5907640675211592e-09 0.0000000000000000e+00  -9.6407831840666837e-09 -1.5533446777011926e-09 0.0000000000000000e+00  -1.0442864792707527e-08 -1.5152082577615205e-09 0.0000000000000000e+00  -1.1276617768760670e-08 -1.4787302871162099e-09 0.0000000000000000e+00  -1.2134024866283208e-08 -1.4359357007481970e-09 0.0000000000000000e+00  -1.3053254309825160e-08 -7.5952867872722554e-10 0.0000000000000000e+00  -1.3059347170243534e-08 6.3914475110659725e-10 0.0000000000000000e+00  -1.2147542915319367e-08 1.3262529600779944e-09 0.0000000000000000e+00  -1.1288093557789915e-08 1.3787162744439833e-09 0.0000000000000000e+00  -1.0451973015996442e-08 1.4229281353205362e-09 0.0000000000000000e+00  -9.6477833179525376e-09 1.4679041773107127e-09 0.0000000000000000e+00  -8.8747341388469903e-09 1.5096948700102663e-09 0.0000000000000000e+00  -8.1355821102927242e-09 1.5506624116220514e-09 0.0000000000000000e+00  -7.4277141967144174e-09 1.5916422412292929e-09 0.0000000000000000e+00  -6.7522561656961529e-09 1.6271377869571385e-09 0.0000000000000000e+00  -6.1085574710490581e-09 1.6685784371220225e-09 0.0000000000000000e+00  -5.4968000154972837e-09 1.7030023179070459e-09 0.0000000000000000e+00  -4.9169996442569390e-09 1.7439578304972136e-09 0.0000000000000000e+00  -4.3689170057843898e-09 1.7774899192551734e-09 0.0000000000000000e+00  -3.8520451011003113e-09 1.8171020406378332e-09 0.0000000000000000e+00  -3.3660499948663037e-09 1.8495428847975491e-09 0.0000000000000000e+00  -2.9106242824326857e-09 1.8882815484794850e-09 0.0000000000000000e+00  -2.4852603396471603e-09 1.9203478998082459e-09 0.0000000000000000e+00  -2.0898481360484339e-09 1.9586433030813752e-09 0.0000000000000000e+00  -1.7238264268611044e-09 1.9899915454273710e-09 0.0000000000000000e+00  -1.3863657539562681e-09 2.0267276489702972e-09 0.0000000000000000e+00  -1.0766774283529405e-09 2.0567411979647705e-09 0.0000000000000000e+00  -7.9416833323177063e-10 2.0921716049307106e-09 0.0000000000000000e+00  -5.3812178526686903e-10 2.1217877120798178e-09 0.0000000000000000e+00  -3.0850405241590973e-10 2.1547568954742744e-09 0.0000000000000000e+00  -1.0291876197163577e-10 2.1858879838186333e-09 0.0000000000000000e+00  7.6568072553966913e-11 2.2159536784265191e-09 0.0000000000000000e+00  2.3377983168098803e-10 2.2453196184637108e-09 0.0000000000000000e+00  3.6835641092836764e-10 2.2725165806799801e-09 0.0000000000000000e+00  4.8148467144639654e-10 2.3013798546975497e-09 0.0000000000000000e+00  5.7354282737936480e-10 2.3269529844262825e-09 0.0000000000000000e+00  6.4546726300490919e-10 2.3534372393640406e-09 0.0000000000000000e+00  6.9830050909889411e-10 2.3761644491825408e-09 0.0000000000000000e+00  7.3263105158487010e-10 2.3985426733818282e-09 0.0000000000000000e+00  7.5008419340177728e-10 2.4196007299032740e-09 0.0000000000000000e+00  7.4910572026790020e-10 2.4385198590839067e-09 0.0000000000000000e+00  7.3211360921502216e-10 2.4569216116298115e-09 0.0000000000000000e+00  6.9920042160580348e-10 2.4730054625498053e-09 0.0000000000000000e+00  6.5127962675505644e-10 2.4909738015809375e-09 0.0000000000000000e+00  5.8942785635913629e-10 2.5073025388792352e-09 0.0000000000000000e+00  5.1420281165036879e-10 2.5260125833057437e-09 0.0000000000000000e+00  4.2737628847451418e-10 2.5455152025115919e-09 0.0000000000000000e+00  3.2884256927688703e-10 2.5664065494727466e-09 0.0000000000000000e+00  2.2103174918844455e-10 2.5881739802088632e-09 0.0000000000000000e+00  1.0218252257706052e-10 2.6117727384320694e-09 0.0000000000000000e+00  -9.4076571434659173e-12 2.6512147414782168e-09 0.0000000000000000e+00  -7.8863162452164287e-11 2.6930882376679684e-09 0.0000000000000000e+00  1.1367860075044189e-10 2.6037948357649405e-09 0.0000000000000000e+00  -3.3538755112025346e-10 -2.8790850818653260e-11 0.0000000000000000e+00  -1.1711239695192689e-08 -6.9468179090753445e-11 0.0000000000000000e+00  -1.0106480057146853e-08 -7.4562996280002573e-11 0.0000000000000000e+00  -7.7457543201153366e-09 -5.6491602929384384e-11 0.0000000000000000e+00  5.2030977588055663e-11 -2.8809409748714240e-11 0.0000000000000000e+00  -6.4199743285146005e-09 -3.9160819409169483e-11 0.0000000000000000e+00  2.7926404929366647e-10 -1.4340343357676270e-11 0.0000000000000000e+00  -5.1969942614656720e-09 -4.0567297748247832e-11 0.0000000000000000e+00  5.6141699405600542e-10 -2.8466653021989213e-11 0.0000000000000000e+00  6.7921945003382082e-10 -6.1194385651269271e-11 0.0000000000000000e+00  -4.1002409440041005e-09 -4.2469398943100345e-11 0.0000000000000000e+00  7.1955819075581896e-10 -1.4457069311522444e-11 0.0000000000000000e+00  -2.2771813086517378e-09 -4.6720545120093738e-11 0.0000000000000000e+00  7.4200081503889489e-10 -2.2682982112976000e-11 0.0000000000000000e+00  6.1731978163140091e-10 -4.5917362883914065e-11 0.0000000000000000e+00  -1.5443405909491943e-09 -4.7891171647414678e-11 0.0000000000000000e+00  -3.1279116410118818e-09 -4.4995079242098991e-11 0.0000000000000000e+00  4.3427292667160618e-10 -4.6899025161086523e-11 0.0000000000000000e+00  -9.2465959847354919e-10 -4.8864511085524736e-11 0.0000000000000000e+00  1.7747920637351355e-10 -1.8079736217297617e-11 0.0000000000000000e+00  -4.2280644696930739e-10 -7.7064442105434091e-11 0.0000000000000000e+00  -8.1308719305905393e-11 -4.7694383355700015e-11 0.0000000000000000e+00  7.5163629665190361e-10 -5.5282940603049330e-11 0.0000000000000000e+00  -8.9345492215725284e-09 -3.7425134873663512e-11 0.0000000000000000e+00  4.2786048904171490e-10 -5.7925277132014744e-11 0.0000000000000000e+00  -1.0887977681046945e-08 4.3600657068644436e-10 0.0000000000000000e+00  -9.5208263932758520e-11 9.6881669802019547e-10 0.0000000000000000e+00  -5.7932061100312802e-09 4.6216192490891193e-10 0.0000000000000000e+00  -7.0801824532131101e-09 4.4064904599556513e-10 0.0000000000000000e+00  1.8043477085915429e-10 -9.7721743520870295e-10 0.0000000000000000e+00  6.2521418214671460e-10 -8.0812991990345276e-10 0.0000000000000000e+00  -2.6881036604938802e-09 5.2137956440745531e-10 0.0000000000000000e+00  -4.6334466643164484e-09 4.8280023599268006e-10 0.0000000000000000e+00  6.7783602068752157e-10 -7.4789094116398389e-10 0.0000000000000000e+00  -1.8968820920209145e-09 5.4075609663235324e-10 0.0000000000000000e+00  7.1780243330032172e-10 -7.9215071647632733e-10 0.0000000000000000e+00  5.3540156666943998e-10 -7.3293589285491395e-10 0.0000000000000000e+00  -1.2213967526986769e-09 5.5961239800005195e-10 0.0000000000000000e+00  -3.5992356243047621e-09 5.0228195001440416e-10 0.0000000000000000e+00  3.1167383691754755e-10 -8.6590294573675692e-10 0.0000000000000000e+00  -6.5635270762407774e-10 5.7829260425212316e-10 0.0000000000000000e+00  -4.9115176396305136e-10 -7.3796079951450480e-10 0.0000000000000000e+00  -4.9206074154867830e-10 7.0068665989648041e-10 0.0000000000000000e+00  -1.2410162754853671e-08 -3.8941386761422637e-10 0.0000000000000000e+00  -8.5397959626944008e-11 -1.1214178059378415e-09 0.000