<?xml version="1.0"?>
<VTKFile type="UnstructuredGrid"  version="0.1"  >
<UnstructuredGrid>
<Piece  NumberOfPoints="1419" NumberOfCells="2698">
<Points>
<DataArray  type="Float64"  NumberOfComponents="3"  format="ascii">0 0 0  0 0.41 0  2.5 0 0  2.5 0.41 0  0.5999999751624068 0.1900000037648833 0  0.5999999751977321 0.2099999959581311 0  0.25 0.2 0  0.15 0.2 0  0.2489897948556636 0.21 0  0.2489897948556636 0.19 0  0.5999999751496516 0.1999999998627107 0  0 0.3807142857143437 0  0 0.3514285714286952 0  0 0.3221428571430699 0  0 0.29285714285744 0  0 0.2635714285718054 0  0 0.2342857142861561 0  0 0.2050000000005308 0  0 0.175714285714732 0  0 0.1464285714289574 0  0 0.1171428571431897 0  0 0.08785714285737878 0  0 0.05857142857161107 0  0 0.02928571428580012 0  0.03015443760436003 0 0  0.06140001986583606 0 0  0.09377624077125973 0 0  0.1273239957535082 0 0  0.1620856860351972 0 0  0.1981052433264291 0 0  0.235428184091502 0 0  0.2741016576309132 0 0  0.3141745521465447 0 0  0.3556974926295285 0 0  0.3987229542472677 0 0  0.4433053055141081 0 0  0.4895008759286886 0 0  0.5373680609405097 0 0  0.5869673343216626 0 0  0.6383613676634521 0 0  0.6916151138468254 0 0  0.7467958595648856 0 0  0.8039733463919316 0 0  0.8632198139502143 0 0  0.9246101326867038 0 0  0.9882218810934433 0 0  1.054135445558498 0 0  1.122434100542598 0 0  1.193204177141305 0 0  1.266535089879536 0 0  1.342519516046404 0 0  1.421253448503939 0 0  1.502836389106271 0 0  1.587371439758838 0 0  1.674965418777374 0 0  1.765729001825544 0 0  1.859776908880082 0 0  1.957227977487062 0 0  2.058205329869943 0 0  2.162836591189951 0 0  2.271253957290865 0 0  2.383594446803425 0 0  2.5 0.1024999999997612 0  2.5 0.2049999999994743 0  2.5 0.3074999999997183 0  2.383594446803656 0.41 0  2.271253957291315 0.41 0  2.162836591190598 0.41 0  2.058205329870775 0.41 0  1.957227977488067 0.41 0  1.859776908881246 0.41 0  1.765729001826854 0.41 0  1.674965418778818 0.41 0  1.58737143976041 0.41 0  1.502836389107956 0.41 0  1.421253448505726 0.41 0  1.342519516048286 0.41 0  1.266535089881505 0.41 0  1.193204177143353 0.41 0  1.122434100544716 0.41 0  1.05413544556068 0.41 0  0.9882218810956305 0.41 0  0.9246101326886647 0.41 0  0.8632198139519631 0.41 0  0.8039733463934788 0.41 0  0.7467958595662458 0.41 0  0.6916151138480078 0.41 0  0.6383613676644679 0.41 0  0.5869673343225223 0.41 0  0.5373680609412221 0.41 0  0.4895008759292634 0.41 0  0.4433053055145528 0.41 0  0.3987229542475914 0.41 0  0.3556974926297398 0.41 0  0.3141745521466497 0.41 0  0.2741016576310038 0.41 0  0.2354281840915826 0.41 0  0.1981052433265003 0.41 0  0.1620856860352591 0.41 0  0.1273239957535623 0.41 0  0.09377624077128965 0.41 0  0.06140001986584975 0.41 0  0.03015443760436654 0.41 0  0.2497468076502589 0.2050254481002335 0  0.2497468076502614 0.1949745518997913 0  0.2469965252529372 0.1829317073451959 0  0.2439893735792749 0.1762316384219906 0  0.2400332147834255 0.1700443375285386 0  0.2352133972704371 0.1645032867342007 0  0.2296339016332438 0.1597280261969788 0  0.2234150974217223 0.1558215752574715 0  0.2166911463437691 0.1528682099456123 0  0.2096071079204251 0.1509316448471593 0  0.2023158100364996 0.1500536585536553 0  0.194974551899914 0.1502531923497262 0  0.1877417105387872 0.1515259415822739 0  0.1807733240461124 0.153844448527136 0  0.1742197252835808 0.15715869474974 0  0.1682222986673531 0.1613971801805478 0  0.162910430003803 0.1664684656256651 0  0.1583987151779087 0.1722631454351573 0  0.1547844879126891 0.178656207771761 0  0.1521457199348551 0.1855097315605723 0  0.1505393388476355 0.1926758619366523 0  0.1505393388476328 0.2073241380633295 0  0.1521457199348437 0.2144902684393899 0  0.1547844879126531 0.221343792228163 0  0.1583987151778488 0.2277368545647528 0  0.1629104300036858 0.2335315343742052 0  0.1682222986671726 0.2386028198193036 0  0.1742197252833576 0.2428413052501257 0  0.1807733240458683 0.2461555514727623 0  0.1877417105384929 0.2484740584176516 0  0.1949745518995776 0.2497468076502398 0  0.202315810036185 0.2499463414463592 0  0.2096071079201568 0.2490683551528932 0  0.2166911463435495 0.2471317900544655 0  0.2234150974215506 0.2441784247426195 0  0.2296339016331197 0.2402719738031125 0  0.2352133972703547 0.2354967132658811 0  0.2400332147833751 0.2299556624715287 0  0.2439893735792577 0.2237683615780412 0  0.246996525252926 0.2170682926548348 0  0.2564580976783008 0.2099999920183415 0  0.263926399500478 0.2099999917470773 0  0.2713947021196352 0.2099999918374098 0  0.2788630048411436 0.2099999919248144 0  0.2863313075626938 0.2099999919738662 0  0.2937996102357146 0.2099999920307697 0  0.3012679128721821 0.2099999920963022 0  0.3087362154629615 0.2099999921692658 0  0.3162045180185791 0.209999992248831 0  0.3236728205342902 0.2099999923221926 0  0.3311411230108658 0.2099999924081035 0  0.338609425447828 0.2099999924821427 0  0.3460777278427847 0.2099999925629583 0  0.3535460302000718 0.2099999926394696 0  0.3610143325104823 0.209999992715148 0  0.3684826347834857 0.2099999927904895 0  0.3759509370134428 0.2099999928580493 0  0.3834192392009457 0.2099999929355799 0  0.3908875413460425 0.209999993001531 0  0.3983558434472333 0.2099999930789051 0  0.4058241455054399 0.2099999931476914 0  0.4132924475166724 0.2099999932240696 0  0.4207607494860001 0.2099999932987312 0  0.4282290514009392 0.2099999933765207 0  0.4356973532704254 0.209999993455763 0  0.4431656550869835 0.209999993533264 0  0.4506339568498499 0.2099999936186518 0  0.4581022585576986 0.2099999936998324 0  0.4655705602049892 0.2099999937915144 0  0.4730388617918512 0.2099999938762523 0  0.4805071633128627 0.2099999939744369 0  0.4879754647645244 0.2099999940650211 0  0.4954437661466511 0.2099999941699721 0  0.5029120674503779 0.209999994271426 0  0.5103803686706014 0.2099999943844976 0  0.5178486698075713 0.2099999944892404 0  0.5253169708549615 0.2099999946097439 0  0.5327852718089275 0.2099999947236971 0  0.5402535726611577 0.2099999948575956 0  0.5477218734075335 0.2099999949824794 0  0.5551901740429855 0.2099999951214042 0  0.5626584745662777 0.2099999952659586 0  0.5701267749550709 0.2099999954104635 0  0.5775950752185074 0.2099999955650282 0  0.5850633753457489 0.2099999957193663 0  0.5925316753479762 0.20999999590701 0  0.5999999751350603 0.2049999978857874 0  0.5999999751226404 0.1950000018408023 0  0.5925316753192711 0.1900000038415065 0  0.5850633753250464 0.190000004049333 0  0.5775950752052913 0.1900000042164878 0  0.5701267749466564 0.1900000043826992 0  0.5626584745622073 0.1900000045314172 0  0.5551901740435801 0.1900000046742391 0  0.5477218734115408 0.1900000048123131 0  0.5402535726657559 0.1900000049279951 0  0.532785271815161 0.1900000050600884 0  0.5253169708635677 0.1900000051669122 0  0.5178486698159648 0.1900000052905602 0  0.5103803686775813 0.1900000053886771 0  0.5029120674543336 0.1900000055009134 0  0.4954437661507061 0.1900000055900538 0  0.4879754647709132 0.1900000056939881 0  0.4805071633188187 0.1900000057782053 0  0.4730388617973468 0.1900000058769422 0  0.4655705602099896 0.1900000059563862 0  0.4581022585608848 0.1900000060481729 0  0.4506339568534651 0.1900000061223003 0  0.4431656550902922 0.1900000062095329 0  0.4356973532736924 0.1900000062822893 0  0.428229051403779 0.1900000063637266 0  0.4207607494876913 0.1900000064403407 0  0.4132924475178987 0.1900000065161475 0  0.405824145505492 0.1900000065906485 0  0.3983558434478942 0.1900000066612294 0  0.3908875413469243 0.1900000067384027 0  0.3834192392024872 0.1900000068091441 0  0.375950937015261 0.1900000068855681 0  0.3684826347868451 0.1900000069545077 0  0.361014332516881 0.1900000070261174 0  0.3535460302096778 0.1900000070968253 0  0.3460777278552756 0.1900000071653135 0  0.3386094254619575 0.1900000072340028 0  0.3311411230258983 0.1900000072960247 0  0.3236728205477691 0.1900000073651214 0  0.316204518027601 0.1900000074268244 0  0.3087362154641021 0.1900000074963344 0  0.3012679128602502 0.1900000075672114 0  0.2937996102094115 0.1900000076442126 0  0.2863313075194128 0.1900000077259801 0  0.278863004782695 0.1900000078162957 0  0.2713947020531897 0.1900000079645194 0  0.263926399437514 0.190000008124706 0  0.256458097608399 0.1900000078966693 0  0.2607803152605533 0.2000727135217679 0  0.5887803561516172 0.2001272385292575 0  0.5745072231680804 0.2002044433067583 0  0.551189131382846 0.2001122608524747 0  0.2751288534472361 0.1999999998846785 0  0.536519422284674 0.1999999998929159 0  0.2894621240114736 0.1998691685821976 0  0.5215828203796468 0.1999999998891405 0  0.312778984578773 0.1998657884799593 0  0.3274069718073886 0.1999999998475467 0  0.5066462181045238 0.1999999998858453 0  0.3650630788056072 0.1998660177756229 0  0.4767730125917368 0.1999999998763437 0  0.3417402418061075 0.1998691685958269 0  0.3796850881369311 0.1999999998725291 0  0.4618364094184622 0.1999999998736736 0  0.4917096154971459 0.1999999998800922 0  0.39462169242657 0.1999999998701106 0  0.446899806003726 0.1999999998708281 0  0.4089549616988911 0.1998691685959531 0  0.4322718201485976 0.2001274510527135 0  0.4201487200266212 0.1999966197767154 0  0.3528922753639281 0.2000185702082979 0  0.5633122292909221 0.1999814295546982 0  0.300655883347088 0.1999966197368561 0  0.5815926306587489 0.1966545296217069 0  0.2677053790997546 0.1964246508111551 0  0.5290511213789018 0.1970915840960829 0  0.5439877230819925 0.1970915840285619 0  0.2825131269868888 0.2035478966468974 0  0.3199386693063748 0.2029084149563631 0  0.4842413140778787 0.1970915842680005 0  0.5141145192838813 0.1970915841596243 0  0.3722167859262444 0.2029084151369482 0  0.4693047110351514 0.1970915843182888 0  0.3348752742604432 0.2029084150146014 0  0.3871533903012113 0.2029084151781305 0  0.4543681077379111 0.1970915843653145 0  0.4991779168380127 0.1970915842161645 0  0.4020059652822884 0.2035478970708781 0  0.4394315042110649 0.1970915844107337 0  0.2550657441853585 0.2034088102802973 0  0.2548908485576647 0.1966940332835436 0  0.5946539279009651 0.2
[...]
<PointData  Vectors="f_44-1"> 
<DataArray  type="Float64"  Name="f_44-1"  NumberOfComponents="3" format="ascii">0.0000000000000000e+00 0.0000000000000000e+00 0.0000000000000000e+00  0.0000000000000000e+00 0.0000000000000000e+00 0.0000000000000000e+00  0.0000000000000000e+00 0.0000000000000000e+00 0.0000000000000000e+00  0.0000000000000000e+00 0.0000000000000000e+00 0.0000000000000000e+00  -9.7518373735492171e-09 1.1548512606113231e-09 0.0000000000000000e+00  -9.7394409315162235e-09 -1.2512918526917025e-09 0.0000000000000000e+00  0.0000000000000000e+00 0.0000000000000000e+00 0.0000000000000000e+00  0.0000000000000000e+00 0.0000000000000000e+00 0.0000000000000000e+00  0.0000000000000000e+00 0.0000000000000000e+00 0.0000000000000000e+00  0.0000000000000000e+00 0.0000000000000000e+00 0.0000000000000000e+00  -9.7675972023671684e-09 -4.7923742522072752e-11 0.0000000000000000e+00  0.0000000000000000e+00 0.0000000000000000e+00 0.0000000000000000e+00  0.0000000000000000e+00 0.0000000000000000e+00 0.0000000000000000e+00  0.0000000000000000e+00 0.0000000000000000e+00 0.0000000000000000e+00  0.0000000000000000e+00 0.0000000000000000e+00 0.0000000000000000e+00  0.0000000000000000e+00 0.0000000000000000e+00 0.0000000000000000e+00  0.0000000000000000e+00 0.0000000000000000e+00 0.0000000000000000e+00  0.0000000000000000e+00 0.0000000000000000e+00 0.0000000000000000e+00  0.0000000000000000e+00 0.0000000000000000e+00 0.0000000000000000e+00  0.0000000000000000e+00 0.0000000000000000e+00 0.0000000000000000e+00  0.0000000000000000e+00 0.0000000000000000e+00 0.0000000000000000e+00  0.0000000000000000e+00 0.0000000000000000e+00 0.0000000000000000e+00  0.0000000000000000e+00 0.0000000000000000e+00 0.0000000000000000e+00  0.0000000000000000e+00 0.0000000000000000e+00 0.0000000000000000e+00  0.0000000000000000e+00 0.0000000000000000e+00 0.0000000000000000e+00  0.0000000000000000e+00 0.0000000000000000e+00 0.0000000000000000e+00  0.0000000000000000e+00 0.0000000000000000e+00 0.0000000000000000e+00  0.0000000000000000e+00 0.0000000000000000e+00 0.0000000000000000e+00  0.0000000000000000e+00 0.0000000000000000e+00 0.0000000000000000e+00  0.0000000000000000e+00 0.0000000000000000e+00 0.0000000000000000e+00  0.0000000000000000e+00 0.0000000000000000e+00 0.0000000000000000e+00  0.0000000000000000e+00 0.0000000000000000e+00 0.0000000000000000e+00  0.0000000000000000e+00 0.0000000000000000e+00 0.0000000000000000e+00  0.0000000000000000e+00 0.0000000000000000e+00 0.0000000000000000e+00  0.0000000000000000e+00 0.0000000000000000e+00 0.0000000000000000e+00  0.0000000000000000e+00 0.0000000000000000e+00 0.0000000000000000e+00  0.0000000000000000e+00 0.0000000000000000e+00 0.0000000000000000e+00  0.0000000000000000e+00 0.0000000000000000e+00 0.0000000000000000e+00  0.0000000000000000e+00 0.0000000000000000e+00 0.0000000000000000e+00  0.0000000000000000e+00 0.0000000000000000e+00 0.0000000000000000e+00  0.0000000000000000e+00 0.0000000000000000e+00 0.0000000000000000e+00  0.0000000000000000e+00 0.0000000000000000e+00 0.0000000000000000e+00  0.0000000000000000e+00 0.0000000000000000e+00 0.0000000000000000e+00  0.0000000000000000e+00 0.0000000000000000e+00 0.0000000000000000e+00  0.0000000000000000e+00 0.0000000000000000e+00 0.0000000000000000e+00  0.0000000000000000e+00 0.0000000000000000e+00 0.0000000000000000e+00  0.0000000000000000e+00 0.0000000000000000e+00 0.0000000000000000e+00  0.0000000000000000e+00 0.0000000000000000e+00 0.0000000000000000e+00  0.0000000000000000e+00 0.0000000000000000e+00 0.0000000000000000e+00  0.0000000000000000e+00 0.0000000000000000e+00 0.0000000000000000e+00  0.0000000000000000e+00 0.0000000000000000e+00 0.0000000000000000e+00  0.0000000000000000e+00 0.0000000000000000e+00 0.0000000000000000e+00  0.0000000000000000e+00 0.0000000000000000e+00 0.0000000000000000e+00  0.0000000000000000e+00 0.0000000000000000e+00 0.0000000000000000e+00  0.0000000000000000e+00 0.0000000000000000e+00 0.0000000000000000e+00  0.0000000000000000e+00 0.0000000000000000e+00 0.0000000000000000e+00  0.0000000000000000e+00 0.0000000000000000e+00 0.0000000000000000e+00  0.0000000000000000e+00 0.0000000000000000e+00 0.0000000000000000e+00  0.0000000000000000e+00 0.0000000000000000e+00 0.0000000000000000e+00  0.0000000000000000e+00 0.0000000000000000e+00 0.0000000000000000e+00  0.0000000000000000e+00 0.0000000000000000e+00 0.0000000000000000e+00  0.0000000000000000e+00 0.0000000000000000e+00 0.0000000000000000e+00  0.0000000000000000e+00 0.0000000000000000e+00 0.0000000000000000e+00  0.0000000000000000e+00 0.0000000000000000e+00 0.0000000000000000e+00  0.0000000000000000e+00 0.0000000000000000e+00 0.0000000000000000e+00  0.0000000000000000e+00 0.0000000000000000e+00 0.0000000000000000e+00  0.0000000000000000e+00 0.0000000000000000e+00 0.0000000000000000e+00  0.0000000000000000e+00 0.0000000000000000e+00 0.0000000000000000e+00  0.0000000000000000e+00 0.0000000000000000e+00 0.0000000000000000e+00  0.0000000000000000e+00 0.0000000000000000e+00 0.0000000000000000e+00  0.0000000000000000e+00 0.0000000000000000e+00 0.0000000000000000e+00  0.0000000000000000e+00 0.0000000000000000e+00 0.0000000000000000e+00  0.0000000000000000e+00 0.0000000000000000e+00 0.0000000000000000e+00  0.0000000000000000e+00 0.0000000000000000e+00 0.0000000000000000e+00  0.0000000000000000e+00 0.0000000000000000e+00 0.0000000000000000e+00  0.0000000000000000e+00 0.0000000000000000e+00 0.0000000000000000e+00  0.0000000000000000e+00 0.0000000000000000e+00 0.0000000000000000e+00  0.0000000000000000e+00 0.0000000000000000e+00 0.0000000000000000e+00  0.0000000000000000e+00 0.0000000000000000e+00 0.0000000000000000e+00  0.0000000000000000e+00 0.0000000000000000e+00 0.0000000000000000e+00  0.0000000000000000e+00 0.0000000000000000e+00 0.0000000000000000e+00  0.0000000000000000e+00 0.0000000000000000e+00 0.0000000000000000e+00  0.0000000000000000e+00 0.0000000000000000e+00 0.0000000000000000e+00  0.0000000000000000e+00 0.0000000000000000e+00 0.0000000000000000e+00  0.0000000000000000e+00 0.0000000000000000e+00 0.0000000000000000e+00  0.0000000000000000e+00 0.0000000000000000e+00 0.0000000000000000e+00  0.0000000000000000e+00 0.0000000000000000e+00 0.0000000000000000e+00  0.0000000000000000e+00 0.0000000000000000e+00 0.0000000000000000e+00  0.0000000000000000e+00 0.0000000000000000e+00 0.0000000000000000e+00  0.0000000000000000e+00 0.0000000000000000e+00 0.0000000000000000e+00  0.0000000000000000e+00 0.0000000000000000e+00 0.0000000000000000e+00  0.0000000000000000e+00 0.0000000000000000e+00 0.0000000000000000e+00  0.0000000000000000e+00 0.0000000000000000e+00 0.0000000000000000e+00  0.0000000000000000e+00 0.0000000000000000e+00 0.0000000000000000e+00  0.0000000000000000e+00 0.0000000000000000e+00 0.0000000000000000e+00  0.0000000000000000e+00 0.0000000000000000e+00 0.0000000000000000e+00  0.0000000000000000e+00 0.0000000000000000e+00 0.0000000000000000e+00  0.0000000000000000e+00 0.0000000000000000e+00 0.0000000000000000e+00  0.0000000000000000e+00 0.0000000000000000e+00 0.0000000000000000e+00  0.0000000000000000e+00 0.0000000000000000e+00 0.0000000000000000e+00  0.0000000000000000e+00 0.0000000000000000e+00 0.0000000000000000e+00  0.0000000000000000e+00 0.0000000000000000e+00 0.0000000000000000e+00  0.0000000000000000e+00 0.0000000000000000e+00 0.0000000000000000e+00  0.0000000000000000e+00 0.0000000000000000e+00 0.0000000000000000e+00  0.0000000000000000e+00 0.0000000000000000e+00 0.0000000000000000e+00  0.0000000000000000e+00 0.0000000000000000e+00 0.0000000000000000e+00  0.0000000000000000e+00 0.0000000000000000e+00 0.0000000000000000e+00  0.0000000000000000e+00 0.0000000000000000e+00 0.0000000000000000e+00  0.0000000000000000e+00 0.0000000000000000e+00 0.0000000000000000e+00  0.0000000000000000e+00 0.0000000000000000e+00 0.0000000000000000e+00  0.0000000000000000e+00 0.0000000000000000e+00 0.0000000000000000e+00  0.0000000000000000e+00 0.0000000000000000e+00 0.0000000000000000e+00  0.0000000000000000e+00 0.0000000000000000e+00 0.0000000000000000e+00  0.0000000000000000e+00 0.0000000000000000e+00 0.0000000000000000e+00  0.0000000000000000e+00 0.0000000000000000e+00 0.0000000000000000e+00  0.0000000000000000e+00 0.0000000000000000e+00 0.0000000000000000e+00  0.0000000000000000e+00 0.0000000000000000e+00 0.0000000000000000e+00  0.0000000000000000e+00 0.0000000000000000e+00 0.0000000000000000e+00  0.0000000000000000e+00 0.0000000000000000e+00 0.0000000000000000e+00  0.0000000000000000e+00 0.0000000000000000e+00 0.0000000000000000e+00  0.0000000000000000e+00 0.0000000000000000e+00 0.0000000000000000e+00  0.0000000000000000e+00 0.0000000000000000e+00 0.0000000000000000e+00  0.0000000000000000e+00 0.0000000000000000e+00 0.0000000000000000e+00  0.0000000000000000e+00 0.0000000000000000e+00 0.0000000000000000e+00  0.0000000000000000e+00 0.0000000000000000e+00 0.0000000000000000e+00  0.0000000000000000e+00 0.0000000000000000e+00 0.0000000000000000e+00  0.0000000000000000e+00 0.0000000000000000e+00 0.0000000000000000e+00  0.0000000000000000e+00 0.0000000000000000e+00 0.0000000000000000e+00  0.0000000000000000e+00 0.0000000000000000e+00 0.0000000000000000e+00  0.0000000000000000e+00 0.0000000000000000e+00 0.0000000000000000e+00  0.0000000000000000e+00 0.0000000000000000e+00 0.0000000000000000e+00  0.0000000000000000e+00 0.0000000000000000e+00 0.0000000000000000e+00  0.0000000000000000e+00 0.0000000000000000e+00 0.0000000000000000e+00  0.0000000000000000e+00 0.0000000000000000e+00 0.0000000000000000e+00  0.0000000000000000e+00 0.0000000000000000e+00 0.0000000000000000e+00  0.0000000000000000e+00 0.0000000000000000e+00 0.0000000000000000e+00  0.0000000000000000e+00 0.0000000000000000e+00 0.0000000000000000e+00  0.0000000000000000e+00 0.0000000000000000e+00 0.0000000000000000e+00  0.0000000000000000e+00 0.0000000000000000e+00 0.0000000000000000e+00  0.0000000000000000e+00 0.0000000000000000e+00 0.0000000000000000e+00  0.0000000000000000e+00 0.0000000000000000e+00 0.0000000000000000e+00  0.0000000000000000e+00 0.0000000000000000e+00 0.0000000000000000e+00  0.0000000000000000e+00 0.0000000000000000e+00 0.0000000000000000e+00  1.3844607602820780e-10 -2.3133252110849602e-09 0.0000000000000000e+00  -1.0758039280238441e-11 -2.3991169763900892e-09 0.0000000000000000e+00  7.5243166092088992e-11 -2.3803439249108813e-09 0.0000000000000000e+00  1.9497933326387380e-10 -2.3643208035477526e-09 0.0000000000000000e+00  3.1803708471518239e-10 -2.3592210214053729e-09 0.0000000000000000e+00  4.2993518137343016e-10 -2.3524635616714273e-09 0.0000000000000000e+00  5.3309763963364634e-10 -2.3428130152536268e-09 0.0000000000000000e+00  6.2601976812885095e-10 -2.3296374994215905e-09 0.0000000000000000e+00  7.0985555900570516e-10 -2.3135992334838800e-09 0.0000000000000000e+00  7.8366977436795995e-10 -2.2973154337487695e-09 0.0000000000000000e+00  8.4685713585716825e-10 -2.2769555582991901e-09 0.0000000000000000e+00  8.9904451132556361e-10 -2.2583531238308761e-09 0.0000000000000000e+00  9.3896275499514156e-10 -2.2373218861301408e-09 0.0000000000000000e+00  9.6693044071442368e-10 -2.2169580914336059e-09 0.0000000000000000e+00  9.8025392846281173e-10 -2.1960518907783981e-09 0.0000000000000000e+00  9.8042516098292532e-10 -2.1749652058285633e-09 0.0000000000000000e+00  9.6554701604168331e-10 -2.1556273972286959e-09 0.0000000000000000e+00  9.3513449735997929e-10 -2.1329889814828045e-09 0.0000000000000000e+00  8.8871537658853572e-10 -2.1133042499101887e-09 0.0000000000000000e+00  8.2537685041102266e-10 -2.0896469660965095e-09 0.0000000000000000e+00  7.4500212532601232e-10 -2.0681921045779748e-09 0.0000000000000000e+00  6.4598950457152150e-10 -2.0438108073428865e-09 0.0000000000000000e+00  5.2951028155905417e-10 -2.0197756288034291e-09 0.0000000000000000e+00  3.9161308003465491e-10 -1.9939675938003421e-09 0.0000000000000000e+00  2.3474529475103019e-10 -1.9675672458502921e-09 0.0000000000000000e+00  5.6451625242742843e-11 -1.9414744478785143e-09 0.0000000000000000e+00  -1.4354529744704912e-10 -1.9125550560674086e-09 0.0000000000000000e+00  -3.6563035617192663e-10 -1.8849954961727526e-09 0.0000000000000000e+00  -6.1151131872090195e-10 -1.8538702186839237e-09 0.0000000000000000e+00  -8.8091203254621615e-10 -1.8251942807402834e-09 0.0000000000000000e+00  -1.1753042409580982e-09 -1.7921847891518613e-09 0.0000000000000000e+00  -1.4954227081983418e-09 -1.7619657313116639e-09 0.0000000000000000e+00  -1.8408732492254004e-09 -1.7274195259988860e-09 0.0000000000000000e+00  -2.2138421101987049e-09 -1.6945459596467458e-09 0.0000000000000000e+00  -2.6151072913822066e-09 -1.6584423763833887e-09 0.0000000000000000e+00  -3.0439633413318012e-09 -1.6255414868528704e-09 0.0000000000000000e+00  -3.5014162388629938e-09 -1.5885485229486858e-09 0.0000000000000000e+00  -3.9878238969512918e-09 -1.5544629296674459e-09 0.0000000000000000e+00  -4.5043064487069697e-09 -1.5156648886185463e-09 0.0000000000000000e+00  -5.0510573455505691e-09 -1.4804912096311562e-09 0.0000000000000000e+00  -5.6282949164133691e-09 -1.4426176321499985e-09 0.0000000000000000e+00  -6.2354075278983281e-09 -1.4047219400828258e-09 0.0000000000000000e+00  -6.8762694135633488e-09 -1.3678853638439058e-09 0.0000000000000000e+00  -7.5479622739737120e-09 -1.3299597076582349e-09 0.0000000000000000e+00  -8.2516023618868665e-09 -1.2933516493380191e-09 0.0000000000000000e+00  -8.9808559927719534e-09 -1.2501737011096861e-09 0.0000000000000000e+00  -9.7673406515883879e-09 -6.5634652410051485e-10 0.0000000000000000e+00  -9.7721300872510042e-09 5.6058581806597223e-10 0.0000000000000000e+00  -8.9916105183648144e-09 1.1629360688052106e-09 0.0000000000000000e+00  -8.2603306724407428e-09 1.2137588561680135e-09 0.0000000000000000e+00  -7.5544889191086792e-09 1.2560890026899691e-09 0.0000000000000000e+00  -6.8809803017524930e-09 1.2989996879104568e-09 0.0000000000000000e+00  -6.2383826168167379e-09 1.3385621228900346e-09 0.0000000000000000e+00  -5.6294689923768442e-09 1.3772007817173534e-09 0.0000000000000000e+00  -5.0508813123007508e-09 1.4156298800063049e-09 0.0000000000000000e+00  -4.5035249049625072e-09 1.4486645239055363e-09 0.0000000000000000e+00  -3.9863212506068031e-09 1.4871494544863611e-09 0.0000000000000000e+00  -3.4990889899007582e-09 1.5189535606181084e-09 0.0000000000000000e+00  -3.0414938392027325e-09 1.5565577756161546e-09 0.0000000000000000e+00  -2.6129033790931244e-09 1.5870680991979206e-09 0.0000000000000000e+00  -2.2124626140267378e-09 1.6227110204461232e-09 0.0000000000000000e+00  -1.8395141527619847e-09 1.6515745222558561e-09 0.0000000000000000e+00  -1.4934385424152258e-09 1.6857203867266080e-09 0.0000000000000000e+00  -1.1735162044429913e-09 1.7137346052762934e-09 0.0000000000000000e+00  -8.7933187169148246e-10 1.7469015116228051e-09 0.0000000000000000e+00  -6.1014856833789414e-10 1.7737945721921800e-09 0.0000000000000000e+00  -3.6492897652343217e-10 1.8050161821275162e-09 0.0000000000000000e+00  -1.4277672493211728e-10 1.8302880331074090e-09 0.0000000000000000e+00  5.7035627068458650e-11 1.8599665181522344e-09 0.0000000000000000e+00  2.3522372147277339e-10 1.8846215225737049e-09 0.0000000000000000e+00  3.9192547683147116e-10 1.9119700028551545e-09 0.0000000000000000e+00  5.2937428067778594e-10 1.9376393363163111e-09 0.0000000000000000e+00  6.4568786597113638e-10 1.9623933548437597e-09 0.0000000000000000e+00  7.4435065509446076e-10 1.9865178737213972e-09 0.0000000000000000e+00  8.2497955464338565e-10 2.0089197982584974e-09 0.0000000000000000e+00  8.8855918203150125e-10 2.0328206727114698e-09 0.0000000000000000e+00  9.3540914781904538e-10 2.0541606040765016e-09 0.0000000000000000e+00  9.6627473004500565e-10 2.0764491741624490e-09 0.0000000000000000e+00  9.8203647312052154e-10 2.0957975080495896e-09 0.0000000000000000e+00  9.8314220084424169e-10 2.1150202892290998e-09 0.0000000000000000e+00  9.7101379127857149e-10 2.1332461660438180e-09 0.0000000000000000e+00  9.4401099925995939e-10 2.1496983252937864e-09 0.0000000000000000e+00  9.0432635576525747e-10 2.1656114055278395e-09 0.0000000000000000e+00  8.5174440658615654e-10 2.1793443934810291e-09 0.0000000000000000e+00  7.8693261830425315e-10 2.1944605461456643e-09 0.0000000000000000e+00  7.1054188498828788e-10 2.2079193934517762e-09 0.0000000000000000e+00  6.2288078184665278e-10 2.2233358314250491e-09 0.0000000000000000e+00  5.2522936545497231e-10 2.2394772879735923e-09 0.0000000000000000e+00  4.1732071114456074e-10 2.2571355137461000e-09 0.0000000000000000e+00  3.0111761920997472e-10 2.2760080695564874e-09 0.0000000000000000e+00  1.7501825773877476e-10 2.2970688468359616e-09 0.0000000000000000e+00  5.5053503641253481e-11 2.3328632669085874e-09 0.0000000000000000e+00  -2.7928475912094876e-11 2.3713532715204142e-09 0.0000000000000000e+00  1.2027632256660968e-10 2.2946696125340554e-09 0.0000000000000000e+00  -2.6257312420036819e-10 -2.7198614641732934e-11 0.0000000000000000e+00  -8.6176359690521950e-09 -5.6544537577374802e-11 0.0000000000000000e+00  -7.2626804608764979e-09 -6.2196571638711872e-11 0.0000000000000000e+00  -5.3084340294661012e-09 -4.8075121796407288e-11 0.0000000000000000e+00  1.2048964915707458e-10 -2.8567761268789226e-11 0.0000000000000000e+00  -4.2339374158064057e-09 -3.3358194950447384e-11 0.0000000000000000e+00  3.6089508872623658e-10 -1.4978600046770581e-11 0.0000000000000000e+00  -3.2598496234592648e-09 -3.4606006819399511e-11 0.0000000000000000e+00  6.7521719889293136e-10 -2.3453542514871919e-11 0.0000000000000000e+00  8.2255450875908562e-10 -5.0543511861797764e-11 0.0000000000000000e+00  -2.4020517137630121e-09 -3.5958173250974582e-11 0.0000000000000000e+00  9.8813695179694764e-10 -1.0862051401425841e-11 0.0000000000000000e+00  -1.0163188945820298e-09 -3.9254910053826482e-11 0.0000000000000000e+00  9.2380147232813425e-10 -1.6529565029233611e-11 0.0000000000000000e+00  9.5816596032206112e-10 -3.9327626102333365e-11 0.0000000000000000e+00  -4.7738331860557135e-10 -4.0144885984908335e-11 0.0000000000000000e+00  -1.6559677081162498e-09 -3.7953527250540273e-11 0.0000000000000000e+00  8.6517034142337857e-10 -4.0303911341883067e-11 0.0000000000000000e+00  -3.2994954282409915e-11 -4.1015430916766473e-11 0.0000000000000000e+00  7.1155995158540347e-10 -1.4513182464503646e-11 0.0000000000000000e+00  3.1610559535129960e-10 -6.6168992227192550e-11 0.0000000000000000e+00  5.4534694331062393e-10 -4.0403238475160628e-11 0.0000000000000000e+00  9.7095403892918497e-10 -4.5890464637868909e-11 0.0000000000000000e+00  -6.2863135031088134e-09 -3.0316690260127637e-11 0.0000000000000000e+00  5.2309616604270465e-10 -5.1537128188499818e-11 0.0000000000000000e+00  -7.9199747190259161e-09 3.8705417579911909e-10 0.0000000000000000e+00  -3.0624138249246118e-11 8.5098116777585488e-10 0.0000000000000000e+00  -3.7326631561997679e-09 4.1311296516556564e-10 0.0000000000000000e+00  -4.7668024295380196e-09 3.9333913844048646e-10 0.0000000000000000e+00  2.5421507317511989e-10 -8.6342385139764044e-10 0.0000000000000000e+00  7.5212563591821438e-10 -7.0834666585738994e-10 0.0000000000000000e+00  -1.3237511571942419e-09 4.6702705414443634e-10 0.0000000000000000e+00  -2.8172399869329866e-09 4.3225925234820610e-10 0.0000000000000000e+00  9.8010317277669851e-10 -6.5776650230228365e-10 0.0000000000000000e+00  -7.3519631884439854e-10 4.8392279193652291e-10 0.0000000000000000e+00  8.7993902221461824e-10 -6.9349964337485180e-10 0.0000000000000000e+00  9.1926498564246008e-10 -6.4574095687946674e-10 0.0000000000000000e+00  -2.4440435890465450e-10 4.9996748368389128e-10 0.0000000000000000e+00  -2.0159695829315304e-09 4.5003747637868871e-10 0.0000000000000000e+00  7.9361563053875418e-10 -7.6396765593493908e-10 0.0000000000000000e+00  1.5504882379419179e-10 5.1552657234955049e-10 0.0000000000000000e+00  -4.1701894966224727e-10 -6.5181351087957492e-10 0.0000000000000000e+00  -4.1844993504746823e-10 6.1730591930848035e-10 0.0000000000000000e+00  -9.2144352972964863e-09 -3.3546053236628082e-10 0.0000000000000000e+00  -2.1798096756253036e-11 -9.9090580723418079e-10 0.000000000000000