<?xml version="1.0"?>
<VTKFile type="UnstructuredGrid"  version="0.1"  >
<UnstructuredGrid>
<Piece  NumberOfPoints="1419" NumberOfCells="2698">
<Points>
<DataArray  type="Float64"  NumberOfComponents="3"  format="ascii">0 0 0  0 0.41 0  2.5 0 0  2.5 0.41 0  0.5999999849142441 0.190000002610032 0  0.599999984937173 0.2099999972094229 0  0.25 0.2 0  0.15 0.2 0  0.2489897948556636 0.21 0  0.2489897948556636 0.19 0  0.5999999849172488 0.1999999999106345 0  0 0.3807142857143437 0  0 0.3514285714286952 0  0 0.3221428571430699 0  0 0.29285714285744 0  0 0.2635714285718054 0  0 0.2342857142861561 0  0 0.2050000000005308 0  0 0.175714285714732 0  0 0.1464285714289574 0  0 0.1171428571431897 0  0 0.08785714285737878 0  0 0.05857142857161107 0  0 0.02928571428580012 0  0.03015443760436003 0 0  0.06140001986583606 0 0  0.09377624077125973 0 0  0.1273239957535082 0 0  0.1620856860351972 0 0  0.1981052433264291 0 0  0.235428184091502 0 0  0.2741016576309132 0 0  0.3141745521465447 0 0  0.3556974926295285 0 0  0.3987229542472677 0 0  0.4433053055141081 0 0  0.4895008759286886 0 0  0.5373680609405097 0 0  0.5869673343216626 0 0  0.6383613676634521 0 0  0.6916151138468254 0 0  0.7467958595648856 0 0  0.8039733463919316 0 0  0.8632198139502143 0 0  0.9246101326867038 0 0  0.9882218810934433 0 0  1.054135445558498 0 0  1.122434100542598 0 0  1.193204177141305 0 0  1.266535089879536 0 0  1.342519516046404 0 0  1.421253448503939 0 0  1.502836389106271 0 0  1.587371439758838 0 0  1.674965418777374 0 0  1.765729001825544 0 0  1.859776908880082 0 0  1.957227977487062 0 0  2.058205329869943 0 0  2.162836591189951 0 0  2.271253957290865 0 0  2.383594446803425 0 0  2.5 0.1024999999997612 0  2.5 0.2049999999994743 0  2.5 0.3074999999997183 0  2.383594446803656 0.41 0  2.271253957291315 0.41 0  2.162836591190598 0.41 0  2.058205329870775 0.41 0  1.957227977488067 0.41 0  1.859776908881246 0.41 0  1.765729001826854 0.41 0  1.674965418778818 0.41 0  1.58737143976041 0.41 0  1.502836389107956 0.41 0  1.421253448505726 0.41 0  1.342519516048286 0.41 0  1.266535089881505 0.41 0  1.193204177143353 0.41 0  1.122434100544716 0.41 0  1.05413544556068 0.41 0  0.9882218810956305 0.41 0  0.9246101326886647 0.41 0  0.8632198139519631 0.41 0  0.8039733463934788 0.41 0  0.7467958595662458 0.41 0  0.6916151138480078 0.41 0  0.6383613676644679 0.41 0  0.5869673343225223 0.41 0  0.5373680609412221 0.41 0  0.4895008759292634 0.41 0  0.4433053055145528 0.41 0  0.3987229542475914 0.41 0  0.3556974926297398 0.41 0  0.3141745521466497 0.41 0  0.2741016576310038 0.41 0  0.2354281840915826 0.41 0  0.1981052433265003 0.41 0  0.1620856860352591 0.41 0  0.1273239957535623 0.41 0  0.09377624077128965 0.41 0  0.06140001986584975 0.41 0  0.03015443760436654 0.41 0  0.2497468076502589 0.2050254481002335 0  0.2497468076502614 0.1949745518997913 0  0.2469965252529372 0.1829317073451959 0  0.2439893735792749 0.1762316384219906 0  0.2400332147834255 0.1700443375285386 0  0.2352133972704371 0.1645032867342007 0  0.2296339016332438 0.1597280261969788 0  0.2234150974217223 0.1558215752574715 0  0.2166911463437691 0.1528682099456123 0  0.2096071079204251 0.1509316448471593 0  0.2023158100364996 0.1500536585536553 0  0.194974551899914 0.1502531923497262 0  0.1877417105387872 0.1515259415822739 0  0.1807733240461124 0.153844448527136 0  0.1742197252835808 0.15715869474974 0  0.1682222986673531 0.1613971801805478 0  0.162910430003803 0.1664684656256651 0  0.1583987151779087 0.1722631454351573 0  0.1547844879126891 0.178656207771761 0  0.1521457199348551 0.1855097315605723 0  0.1505393388476355 0.1926758619366523 0  0.1505393388476328 0.2073241380633295 0  0.1521457199348437 0.2144902684393899 0  0.1547844879126531 0.221343792228163 0  0.1583987151778488 0.2277368545647528 0  0.1629104300036858 0.2335315343742052 0  0.1682222986671726 0.2386028198193036 0  0.1742197252833576 0.2428413052501257 0  0.1807733240458683 0.2461555514727623 0  0.1877417105384929 0.2484740584176516 0  0.1949745518995776 0.2497468076502398 0  0.202315810036185 0.2499463414463592 0  0.2096071079201568 0.2490683551528932 0  0.2166911463435495 0.2471317900544655 0  0.2234150974215506 0.2441784247426195 0  0.2296339016331197 0.2402719738031125 0  0.2352133972703547 0.2354967132658811 0  0.2400332147833751 0.2299556624715287 0  0.2439893735792577 0.2237683615780412 0  0.246996525252926 0.2170682926548348 0  0.2564580975398547 0.2099999943316667 0  0.263926399511236 0.2099999941461943 0  0.271394702044392 0.2099999942177537 0  0.2788630046461643 0.2099999942891352 0  0.2863313072446567 0.2099999943330872 0  0.2937996098057794 0.2099999943832332 0  0.3012679123390845 0.2099999944391152 0  0.3087362148369417 0.2099999944989033 0  0.3162045173087235 0.2099999945624302 0  0.3236728197506204 0.209999994619508 0  0.3311411221640087 0.2099999946850591 0  0.3386094245487835 0.2099999947404958 0  0.346077726903822 0.2099999948002802 0  0.3535460292331414 0.2099999948564277 0  0.3610143315302283 0.2099999949111999 0  0.3684826338030605 0.2099999949654547 0  0.3759509360478958 0.2099999950136767 0  0.3834192382658113 0.2099999950685689 0  0.3908875404573271 0.2099999951148352 0  0.3983558426218565 0.2099999951685521 0  0.4058241447604378 0.2099999952158835 0  0.413292446870683 0.2099999952678804 0  0.4207607489564898 0.2099999953185069 0  0.4282290510093261 0.2099999953704883 0  0.4356973530356801 0.2099999954233302 0  0.4431656550305319 0.2099999954747385 0  0.4506339569933951 0.2099999955312069 0  0.458102258923329 0.2099999955848279 0  0.4655705608165006 0.2099999956453847 0  0.4730388626727632 0.2099999957014465 0  0.4805071644881669 0.2099999957666216 0  0.4879754662599471 0.2099999958269869 0  0.4954437679875243 0.2099999958973917 0  0.50291206966422 0.209999995965972 0  0.5103803712857087 0.20999999604294 0  0.5178486728515346 0.2099999961147819 0  0.5253169743563778 0.2099999961982924 0  0.5327852757967514 0.20999999627816 0  0.5402535771654642 0.2099999963732605 0  0.5477218784585909 0.2099999964629706 0  0.5551901796712805 0.2099999965640219 0  0.5626584808016852 0.2099999966706806 0  0.5701267818313404 0.2099999967783489 0  0.5775950827664696 0.2099999968949879 0  0.5850633835973513 0.209999997012718 0  0.5925316843288322 0.2099999971571837 0  0.5999999849024009 0.2049999985421339 0  0.5999999848947705 0.1950000012802165 0  0.5925316843108817 0.1900000026785704 0  0.585063383585377 0.1900000028355742 0  0.5775950827597802 0.1900000029603988 0  0.5701267818276368 0.1900000030836995 0  0.5626584808005899 0.1900000031928551 0  0.5551901796730491 0.1900000032970383 0  0.547721878462422 0.1900000033966832 0  0.5402535771692808 0.1900000034793306 0  0.5327852758014823 0.1900000035729389 0  0.5253169743626567 0.1900000036479586 0  0.5178486728574586 0.1900000037340024 0  0.5103803712904846 0.190000003801609 0  0.5029120696667962 0.1900000038782024 0  0.4954437679902203 0.1900000039384793 0  0.4879754662643518 0.1900000040082677 0  0.4805071644923349 0.1900000040644707 0  0.4730388626766787 0.1900000041300406 0  0.4655705608201381 0.1900000041825917 0  0.4581022589258137 0.1900000042431567 0  0.4506339569962419 0.1900000042920122 0  0.4431656550332565 0.1900000043495663 0  0.4356973530384686 0.1900000043976678 0  0.4282290510118535 0.1900000044517566 0  0.4207607489583171 0.1900000045027013 0  0.4132924468722108 0.1900000045537542 0  0.4058241447611413 0.1900000046041306 0  0.3983558426229146 0.1900000046523096 0  0.3908875404583651 0.190000004705582 0  0.383419238267078 0.1900000047549835 0  0.3759509360489863 0.1900000048091189 0  0.3684826338048086 0.1900000048587102 0  0.3610143315337389 0.1900000049110971 0  0.353546029238664 0.1900000049635791 0  0.3460777269112646 0.1900000050156151 0  0.3386094245576312 0.1900000050683913 0  0.3311411221741539 0.1900000051166803 0  0.3236728197608365 0.1900000051706608 0  0.3162045173170591 0.190000005218905 0  0.3087362148412213 0.1900000052729986 0  0.3012679123350209 0.1900000053277341 0  0.2937996097920907 0.1900000053870771 0  0.2863313072182951 0.1900000054499721 0  0.2788630046076768 0.1900000055192268 0  0.2713947019981361 0.1900000056316561 0  0.2639263994654425 0.1900000057533527 0  0.2564580974881227 0.1900000056019997 0  0.2607803155231264 0.2000727135489665 0  0.5887803647692531 0.2001272385858021 0  0.5745072304307609 0.2002044433689549 0  0.55118913669128 0.2001122609005498 0  0.2751288533267464 0.1999999999132463 0  0.5365194265186114 0.1999999999262742 0  0.2894621236505786 0.1998691685971762 0  0.5215828236394964 0.1999999999237465 0  0.3127789839035558 0.1998657885034128 0  0.3274069709848341 0.1999999998980903 0  0.5066462205065755 0.1999999999218035 0  0.3650630778174702 0.1998660177864849 0  0.4767730136080557 0.1999999999155986 0  0.341740240882306 0.1998691686123565 0  0.3796850871787651 0.1999999999118567 0  0.4618364098958455 0.1999999999138185 0  0.4917096171531136 0.1999999999180458 0  0.3946216915613997 0.1999999999104144 0  0.446899806036721 0.1999999999118436 0  0.4089549609873311 0.1998691686104663 0  0.432271819832492 0.2001274511188824 0  0.4201487194812742 0.1999966198171186 0  0.352892274392974 0.2000185702541883 0  0.5633122355772355 0.1999814295850149 0  0.3006558828239919 0.1999966197883932 0  0.5815926385787236 0.1966545292346527 0  0.2677053791303787 0.196424649960174 0  0.5290511251115649 0.19709158368297 0  0.5439877278487949 0.1970915836352228 0  0.2825131267326737 0.2035478975103213 0  0.3199386685542492 0.2029084156647098 0  0.4842413154016298 0.1970915838009734 0  0.5141145221011213 0.197091583727365 0  0.3722167849461412 0.2029084157947147 0  0.4693047117703477 0.197091583834366 0  0.3348752733805042 0.202908415708101 0  0.3871533893819463 0.2029084158238715 0  0.4543681079823155 0.197091583865347 0  0.4991779188539823 0.197091583766127 0  0.4020059644886728 0.2035478978348457 0  0.4394315040560161 0.1970915838952071 0  0.2550657446023775 0.2034088109321108 0  0.2548908489761146 0.1966940326662377 0  0.5946539371154004 0.2024302965
[...]
<PointData  Vectors="f_44-1"> 
<DataArray  type="Float64"  Name="f_44-1"  NumberOfComponents="3" format="ascii">0.0000000000000000e+00 0.0000000000000000e+00 0.0000000000000000e+00  0.0000000000000000e+00 0.0000000000000000e+00 0.0000000000000000e+00  0.0000000000000000e+00 0.0000000000000000e+00 0.0000000000000000e+00  0.0000000000000000e+00 0.0000000000000000e+00 0.0000000000000000e+00  -6.8486821312572977e-09 9.5575669438281085e-10 0.0000000000000000e+00  -6.8391144647535026e-09 -1.0287841112447829e-09 0.0000000000000000e+00  0.0000000000000000e+00 0.0000000000000000e+00 0.0000000000000000e+00  0.0000000000000000e+00 0.0000000000000000e+00 0.0000000000000000e+00  0.0000000000000000e+00 0.0000000000000000e+00 0.0000000000000000e+00  0.0000000000000000e+00 0.0000000000000000e+00 0.0000000000000000e+00  -6.8573377679906985e-09 -3.6229118179165248e-11 0.0000000000000000e+00  0.0000000000000000e+00 0.0000000000000000e+00 0.0000000000000000e+00  0.0000000000000000e+00 0.0000000000000000e+00 0.0000000000000000e+00  0.0000000000000000e+00 0.0000000000000000e+00 0.0000000000000000e+00  0.0000000000000000e+00 0.0000000000000000e+00 0.0000000000000000e+00  0.0000000000000000e+00 0.0000000000000000e+00 0.0000000000000000e+00  0.0000000000000000e+00 0.0000000000000000e+00 0.0000000000000000e+00  0.0000000000000000e+00 0.0000000000000000e+00 0.0000000000000000e+00  0.0000000000000000e+00 0.0000000000000000e+00 0.0000000000000000e+00  0.0000000000000000e+00 0.0000000000000000e+00 0.0000000000000000e+00  0.0000000000000000e+00 0.0000000000000000e+00 0.0000000000000000e+00  0.0000000000000000e+00 0.0000000000000000e+00 0.0000000000000000e+00  0.0000000000000000e+00 0.0000000000000000e+00 0.0000000000000000e+00  0.0000000000000000e+00 0.0000000000000000e+00 0.0000000000000000e+00  0.0000000000000000e+00 0.0000000000000000e+00 0.0000000000000000e+00  0.0000000000000000e+00 0.0000000000000000e+00 0.0000000000000000e+00  0.0000000000000000e+00 0.0000000000000000e+00 0.0000000000000000e+00  0.0000000000000000e+00 0.0000000000000000e+00 0.0000000000000000e+00  0.0000000000000000e+00 0.0000000000000000e+00 0.0000000000000000e+00  0.0000000000000000e+00 0.0000000000000000e+00 0.0000000000000000e+00  0.0000000000000000e+00 0.0000000000000000e+00 0.0000000000000000e+00  0.0000000000000000e+00 0.0000000000000000e+00 0.0000000000000000e+00  0.0000000000000000e+00 0.0000000000000000e+00 0.0000000000000000e+00  0.0000000000000000e+00 0.0000000000000000e+00 0.0000000000000000e+00  0.0000000000000000e+00 0.0000000000000000e+00 0.0000000000000000e+00  0.0000000000000000e+00 0.0000000000000000e+00 0.0000000000000000e+00  0.0000000000000000e+00 0.0000000000000000e+00 0.0000000000000000e+00  0.0000000000000000e+00 0.0000000000000000e+00 0.0000000000000000e+00  0.0000000000000000e+00 0.0000000000000000e+00 0.0000000000000000e+00  0.0000000000000000e+00 0.0000000000000000e+00 0.0000000000000000e+00  0.0000000000000000e+00 0.0000000000000000e+00 0.0000000000000000e+00  0.0000000000000000e+00 0.0000000000000000e+00 0.0000000000000000e+00  0.0000000000000000e+00 0.0000000000000000e+00 0.0000000000000000e+00  0.0000000000000000e+00 0.0000000000000000e+00 0.0000000000000000e+00  0.0000000000000000e+00 0.0000000000000000e+00 0.0000000000000000e+00  0.0000000000000000e+00 0.0000000000000000e+00 0.0000000000000000e+00  0.0000000000000000e+00 0.0000000000000000e+00 0.0000000000000000e+00  0.0000000000000000e+00 0.0000000000000000e+00 0.0000000000000000e+00  0.0000000000000000e+00 0.0000000000000000e+00 0.0000000000000000e+00  0.0000000000000000e+00 0.0000000000000000e+00 0.0000000000000000e+00  0.0000000000000000e+00 0.0000000000000000e+00 0.0000000000000000e+00  0.0000000000000000e+00 0.0000000000000000e+00 0.0000000000000000e+00  0.0000000000000000e+00 0.0000000000000000e+00 0.0000000000000000e+00  0.0000000000000000e+00 0.0000000000000000e+00 0.0000000000000000e+00  0.0000000000000000e+00 0.0000000000000000e+00 0.0000000000000000e+00  0.0000000000000000e+00 0.0000000000000000e+00 0.0000000000000000e+00  0.0000000000000000e+00 0.0000000000000000e+00 0.0000000000000000e+00  0.0000000000000000e+00 0.0000000000000000e+00 0.0000000000000000e+00  0.0000000000000000e+00 0.0000000000000000e+00 0.0000000000000000e+00  0.0000000000000000e+00 0.0000000000000000e+00 0.0000000000000000e+00  0.0000000000000000e+00 0.0000000000000000e+00 0.0000000000000000e+00  0.0000000000000000e+00 0.0000000000000000e+00 0.0000000000000000e+00  0.0000000000000000e+00 0.0000000000000000e+00 0.0000000000000000e+00  0.0000000000000000e+00 0.0000000000000000e+00 0.0000000000000000e+00  0.0000000000000000e+00 0.0000000000000000e+00 0.0000000000000000e+00  0.0000000000000000e+00 0.0000000000000000e+00 0.0000000000000000e+00  0.0000000000000000e+00 0.0000000000000000e+00 0.0000000000000000e+00  0.0000000000000000e+00 0.0000000000000000e+00 0.0000000000000000e+00  0.0000000000000000e+00 0.0000000000000000e+00 0.0000000000000000e+00  0.0000000000000000e+00 0.0000000000000000e+00 0.0000000000000000e+00  0.0000000000000000e+00 0.0000000000000000e+00 0.0000000000000000e+00  0.0000000000000000e+00 0.0000000000000000e+00 0.0000000000000000e+00  0.0000000000000000e+00 0.0000000000000000e+00 0.0000000000000000e+00  0.0000000000000000e+00 0.0000000000000000e+00 0.0000000000000000e+00  0.0000000000000000e+00 0.0000000000000000e+00 0.0000000000000000e+00  0.0000000000000000e+00 0.0000000000000000e+00 0.0000000000000000e+00  0.0000000000000000e+00 0.0000000000000000e+00 0.0000000000000000e+00  0.0000000000000000e+00 0.0000000000000000e+00 0.0000000000000000e+00  0.0000000000000000e+00 0.0000000000000000e+00 0.0000000000000000e+00  0.0000000000000000e+00 0.0000000000000000e+00 0.0000000000000000e+00  0.0000000000000000e+00 0.0000000000000000e+00 0.0000000000000000e+00  0.0000000000000000e+00 0.0000000000000000e+00 0.0000000000000000e+00  0.0000000000000000e+00 0.0000000000000000e+00 0.0000000000000000e+00  0.0000000000000000e+00 0.0000000000000000e+00 0.0000000000000000e+00  0.0000000000000000e+00 0.0000000000000000e+00 0.0000000000000000e+00  0.0000000000000000e+00 0.0000000000000000e+00 0.0000000000000000e+00  0.0000000000000000e+00 0.0000000000000000e+00 0.0000000000000000e+00  0.0000000000000000e+00 0.0000000000000000e+00 0.0000000000000000e+00  0.0000000000000000e+00 0.0000000000000000e+00 0.0000000000000000e+00  0.0000000000000000e+00 0.0000000000000000e+00 0.0000000000000000e+00  0.0000000000000000e+00 0.0000000000000000e+00 0.0000000000000000e+00  0.0000000000000000e+00 0.0000000000000000e+00 0.0000000000000000e+00  0.0000000000000000e+00 0.0000000000000000e+00 0.0000000000000000e+00  0.0000000000000000e+00 0.0000000000000000e+00 0.0000000000000000e+00  0.0000000000000000e+00 0.0000000000000000e+00 0.0000000000000000e+00  0.0000000000000000e+00 0.0000000000000000e+00 0.0000000000000000e+00  0.0000000000000000e+00 0.0000000000000000e+00 0.0000000000000000e+00  0.0000000000000000e+00 0.0000000000000000e+00 0.0000000000000000e+00  0.0000000000000000e+00 0.0000000000000000e+00 0.0000000000000000e+00  0.0000000000000000e+00 0.0000000000000000e+00 0.0000000000000000e+00  0.0000000000000000e+00 0.0000000000000000e+00 0.0000000000000000e+00  0.0000000000000000e+00 0.0000000000000000e+00 0.0000000000000000e+00  0.0000000000000000e+00 0.0000000000000000e+00 0.0000000000000000e+00  0.0000000000000000e+00 0.0000000000000000e+00 0.0000000000000000e+00  0.0000000000000000e+00 0.0000000000000000e+00 0.0000000000000000e+00  0.0000000000000000e+00 0.0000000000000000e+00 0.0000000000000000e+00  0.0000000000000000e+00 0.0000000000000000e+00 0.0000000000000000e+00  0.0000000000000000e+00 0.0000000000000000e+00 0.0000000000000000e+00  0.0000000000000000e+00 0.0000000000000000e+00 0.0000000000000000e+00  0.0000000000000000e+00 0.0000000000000000e+00 0.0000000000000000e+00  0.0000000000000000e+00 0.0000000000000000e+00 0.0000000000000000e+00  0.0000000000000000e+00 0.0000000000000000e+00 0.0000000000000000e+00  0.0000000000000000e+00 0.0000000000000000e+00 0.0000000000000000e+00  0.0000000000000000e+00 0.0000000000000000e+00 0.0000000000000000e+00  0.0000000000000000e+00 0.0000000000000000e+00 0.0000000000000000e+00  0.0000000000000000e+00 0.0000000000000000e+00 0.0000000000000000e+00  0.0000000000000000e+00 0.0000000000000000e+00 0.0000000000000000e+00  0.0000000000000000e+00 0.0000000000000000e+00 0.0000000000000000e+00  0.0000000000000000e+00 0.0000000000000000e+00 0.0000000000000000e+00  0.0000000000000000e+00 0.0000000000000000e+00 0.0000000000000000e+00  0.0000000000000000e+00 0.0000000000000000e+00 0.0000000000000000e+00  0.0000000000000000e+00 0.0000000000000000e+00 0.0000000000000000e+00  0.0000000000000000e+00 0.0000000000000000e+00 0.0000000000000000e+00  0.0000000000000000e+00 0.0000000000000000e+00 0.0000000000000000e+00  0.0000000000000000e+00 0.0000000000000000e+00 0.0000000000000000e+00  0.0000000000000000e+00 0.0000000000000000e+00 0.0000000000000000e+00  0.0000000000000000e+00 0.0000000000000000e+00 0.0000000000000000e+00  0.0000000000000000e+00 0.0000000000000000e+00 0.0000000000000000e+00  0.0000000000000000e+00 0.0000000000000000e+00 0.0000000000000000e+00  0.0000000000000000e+00 0.0000000000000000e+00 0.0000000000000000e+00  0.0000000000000000e+00 0.0000000000000000e+00 0.0000000000000000e+00  0.0000000000000000e+00 0.0000000000000000e+00 0.0000000000000000e+00  0.0000000000000000e+00 0.0000000000000000e+00 0.0000000000000000e+00  0.0000000000000000e+00 0.0000000000000000e+00 0.0000000000000000e+00  0.0000000000000000e+00 0.0000000000000000e+00 0.0000000000000000e+00  0.0000000000000000e+00 0.0000000000000000e+00 0.0000000000000000e+00  0.0000000000000000e+00 0.0000000000000000e+00 0.0000000000000000e+00  0.0000000000000000e+00 0.0000000000000000e+00 0.0000000000000000e+00  0.0000000000000000e+00 0.0000000000000000e+00 0.0000000000000000e+00  0.0000000000000000e+00 0.0000000000000000e+00 0.0000000000000000e+00  0.0000000000000000e+00 0.0000000000000000e+00 0.0000000000000000e+00  0.0000000000000000e+00 0.0000000000000000e+00 0.0000000000000000e+00  0.0000000000000000e+00 0.0000000000000000e+00 0.0000000000000000e+00  1.3061613676192410e-10 -1.9363200165198695e-09 0.0000000000000000e+00  2.0237735652039911e-11 -2.0071488178654904e-09 0.0000000000000000e+00  1.0570381498508108e-10 -1.9902787179756595e-09 0.0000000000000000e+00  2.1848044344690483e-10 -1.9751885089222067e-09 0.0000000000000000e+00  3.3345540875443912e-10 -1.9690736004635913e-09 0.0000000000000000e+00  4.3870623492341761e-10 -1.9612625715960437e-09 0.0000000000000000e+00  5.3667384431283866e-10 -1.9509998762897681e-09 0.0000000000000000e+00  6.2589931372094564e-10 -1.9380460850342637e-09 0.0000000000000000e+00  7.0780314882398838e-10 -1.9230203625524302e-09 0.0000000000000000e+00  7.8144119839518928e-10 -1.9083636929892685e-09 0.0000000000000000e+00  8.4647709688356112e-10 -1.8907349993355367e-09 0.0000000000000000e+00  9.0257117109461168e-10 -1.8750989103538114e-09 0.0000000000000000e+00  9.4881668419067000e-10 -1.8577891205050461e-09 0.0000000000000000e+00  9.8564538898545217e-10 -1.8412605727542223e-09 0.0000000000000000e+00  1.0109299862457871e-09 -1.8245278712115381e-09 0.0000000000000000e+00  1.0261870510811689e-09 -1.8077376162142422e-09 0.0000000000000000e+00  1.0300209646202571e-09 -1.7924343422882044e-09 0.0000000000000000e+00  1.0222379430351270e-09 -1.7745921984248261e-09 0.0000000000000000e+00  1.0026587210472804e-09 -1.7591720507382945e-09 0.0000000000000000e+00  9.7069055295801716e-10 -1.7407645660226391e-09 0.0000000000000000e+00  9.2639726780976674e-10 -1.7241598877774866e-09 0.0000000000000000e+00  8.6859217538584560e-10 -1.7054224208149079e-09 0.0000000000000000e+00  7.9835469119003801e-10 -1.6870301945916750e-09 0.0000000000000000e+00  7.1251303597241081e-10 -1.6674042616926227e-09 0.0000000000000000e+00  6.1309594673086759e-10 -1.6473368439143072e-09 0.0000000000000000e+00  4.9812137832196277e-10 -1.6274899974309250e-09 0.0000000000000000e+00  3.6730924486764024e-10 -1.6054712915733906e-09 0.0000000000000000e+00  2.2027950604366193e-10 -1.5843641607513236e-09 0.0000000000000000e+00  5.5492275265137328e-11 -1.5603829578187672e-09 0.0000000000000000e+00  -1.2697060212848211e-10 -1.5381264587239803e-09 0.0000000000000000e+00  -3.2856060673309011e-10 -1.5122286643175471e-09 0.0000000000000000e+00  -5.5011418401850968e-10 -1.4882969557585783e-09 0.0000000000000000e+00  -7.9159146498556421e-10 -1.4605507279526860e-09 0.0000000000000000e+00  -1.0552062134057443e-09 -1.4337630807950280e-09 0.0000000000000000e+00  -1.3420569380964147e-09 -1.4040049448004966e-09 0.0000000000000000e+00  -1.6518368736348699e-09 -1.3765715461221353e-09 0.0000000000000000e+00  -1.9858743395780334e-09 -1.3452235362134435e-09 0.0000000000000000e+00  -2.3448415257401294e-09 -1.3158471008010064e-09 0.0000000000000000e+00  -2.7303075362506162e-09 -1.2817570790181504e-09 0.0000000000000000e+00  -3.1428214530240360e-09 -1.2503654772950195e-09 0.0000000000000000e+00  -3.5830180792564891e-09 -1.2160066693263601e-09 0.0000000000000000e+00  -4.0506272582903528e-09 -1.1810492452858803e-09 0.0000000000000000e+00  -4.5500456055253116e-09 -1.1466338160627376e-09 0.0000000000000000e+00  -5.0785129588507728e-09 -1.1107510194881319e-09 0.0000000000000000e+00  -5.6376632527357931e-09 -1.0757324680973061e-09 0.0000000000000000e+00  -6.2229925982146876e-09 -1.0341289238293735e-09 0.0000000000000000e+00  -6.8589814881656538e-09 -5.3847717461213213e-10 0.0000000000000000e+00  -6.8624942261491653e-09 4.6618169369696196e-10 0.0000000000000000e+00  -6.2310006008192271e-09 9.6815473685082790e-10 0.0000000000000000e+00  -5.6437796697983173e-09 1.0153955732745576e-09 0.0000000000000000e+00  -5.0827142760142428e-09 1.0542693808643045e-09 0.0000000000000000e+00  -4.5528205570730404e-09 1.0934989827991089e-09 0.0000000000000000e+00  -4.0521181435338449e-09 1.1293332022011473e-09 0.0000000000000000e+00  -3.5831599018588537e-09 1.1641087060055153e-09 0.0000000000000000e+00  -3.1420163017902909e-09 1.1983662771903436e-09 0.0000000000000000e+00  -2.7292583390319110e-09 1.2274702346823006e-09 0.0000000000000000e+00  -2.3433732784321826e-09 1.2611090698522891e-09 0.0000000000000000e+00  -1.9838072664831734e-09 1.2886142106968537e-09 0.0000000000000000e+00  -1.6498098036989764e-09 1.3207520506267515e-09 0.0000000000000000e+00  -1.3403859472674683e-09 1.3464552955306402e-09 0.0000000000000000e+00  -1.0543348871939433e-09 1.3760120088060073e-09 0.0000000000000000e+00  -7.9072269230104723e-10 1.3995679851732573e-09 0.0000000000000000e+00  -5.4864112145186990e-10 1.4270712462815803e-09 0.0000000000000000e+00  -3.2721392022460734e-10 1.4493495912424083e-09 0.0000000000000000e+00  -1.2576172363242754e-10 1.4754348629703229e-09 0.0000000000000000e+00  5.6550407320597709e-11 1.4963467643206317e-09 0.0000000000000000e+00  2.2083079917314935e-10 1.5203873590433747e-09 0.0000000000000000e+00  3.6796646875965421e-10 1.5396701177714580e-09 0.0000000000000000e+00  4.9869367598118282e-10 1.5622144942999965e-09 0.0000000000000000e+00  6.1363913114629926e-10 1.5808611126004685e-09 0.0000000000000000e+00  7.1296359743890872e-10 1.6015260434978020e-09 0.0000000000000000e+00  7.9848753835731340e-10 1.6208695412055082e-09 0.0000000000000000e+00  8.6860711548664704e-10 1.6396057362639440e-09 0.0000000000000000e+00  9.2610573396082886e-10 1.6579048005510348e-09 0.0000000000000000e+00  9.7054733768889031e-10 1.6750271061612826e-09 0.0000000000000000e+00  1.0025774353953776e-09 1.6934912661669282e-09 0.0000000000000000e+00  1.0223386790496922e-09 1.7101937839401387e-09 0.0000000000000000e+00  1.0302547971854021e-09 1.7279146651863345e-09 0.0000000000000000e+00  1.0269196640013488e-09 1.7435947696573108e-09 0.0000000000000000e+00  1.0125331483632587e-09 1.7594789399336688e-09 0.0000000000000000e+00  9.8821679027563095e-10 1.7748157943532784e-09 0.0000000000000000e+00  9.5227518580086769e-10 1.7889761030698182e-09 0.0000000000000000e+00  9.0658544419581206e-10 1.8027662837165001e-09 0.0000000000000000e+00  8.5069216145458728e-10 1.8146927806886523e-09 0.0000000000000000e+00  7.8503432997468060e-10 1.8276542259042909e-09 0.0000000000000000e+00  7.0990445110986945e-10 1.8389542045293594e-09 0.0000000000000000e+00  6.2539822139374191e-10 1.8517270434052716e-09 0.0000000000000000e+00  5.3235643473442731e-10 1.8649787173459542e-09 0.0000000000000000e+00  4.3033297667477880e-10 1.8796606228008525e-09 0.0000000000000000e+00  3.2085291229145384e-10 1.8956674980922477e-09 0.0000000000000000e+00  2.0250792814363500e-10 1.9139793291723505e-09 0.0000000000000000e+00  8.8577310260028740e-11 1.9454616283773976e-09 0.0000000000000000e+00  4.9409294388944279e-12 1.9797539160727044e-09 0.0000000000000000e+00  1.1434325122302740e-10 1.9183207902405669e-09 0.0000000000000000e+00  -1.9653187814715662e-10 -2.4460874643836960e-11 0.0000000000000000e+00  -5.9277604837093395e-09 -4.3842938829319737e-11 0.0000000000000000e+00  -4.8504739311252680e-09 -4.9601814359700461e-11 0.0000000000000000e+00  -3.3359052245013019e-09 -3.9131101604300416e-11 0.0000000000000000e+00  1.5075291818700968e-10 -2.6632620552848724e-11 0.0000000000000000e+00  -2.5256109913157635e-09 -2.7118270257601109e-11 0.0000000000000000e+00  3.7575130952601312e-10 -1.4262336872547589e-11 0.0000000000000000e+00  -1.8068505807882565e-09 -2.8111340893115636e-11 0.0000000000000000e+00  6.7486364584770595e-10 -1.7833957212594172e-11 0.0000000000000000e+00  8.2076732453260431e-10 -3.9355738588811066e-11 0.0000000000000000e+00  -1.1875323026880668e-09 -2.8976766185717037e-11 0.0000000000000000e+00  1.0255865503927548e-09 -8.0922519707207620e-12 0.0000000000000000e+00  -2.1782947773226597e-10 -3.1434207626256717e-11 0.0000000000000000e+00  9.2879590447839986e-10 -1.1416217868052857e-11 0.0000000000000000e+00  1.0326079522521992e-09 -3.2147535943827495e-11 0.0000000000000000e+00  1.4713623313894423e-10 -3.2092108436147791e-11 0.0000000000000000e+00  -6.6033148045404276e-10 -3.0474662346703728e-11 0.0000000000000000e+00  9.9345155008336574e-10 -3.2882414006750658e-11 0.0000000000000000e+00  4.4135581411813038e-10 -3.2799507043772381e-11 0.0000000000000000e+00  9.0892995474285311e-10 -1.1108820478100456e-11 0.0000000000000000e+00  6.6644347445786748e-10 -5.3926825801770229e-11 0.0000000000000000e+00  8.0961166647126576e-10 -3.2522147930615832e-11 0.0000000000000000e+00  9.8785643694573630e-10 -3.6510243750933265e-11 0.0000000000000000e+00  -4.0875181256169318e-09 -2.3533829808132419e-11 0.0000000000000000e+00  5.2903732165366807e-10 -4.2996746815402758e-11 0.0000000000000000e+00  -5.3704943960942259e-09 3.2630787538014660e-10 0.0000000000000000e+00  1.0829780319178597e-11 7.0838397377757369e-10 0.0000000000000000e+00  -2.1538723508716954e-09 3.5123312722375177e-10 0.0000000000000000e+00  -2.9253567303093681e-09 3.3404264116134037e-10 0.0000000000000000e+00  2.7493910934178535e-10 -7.2256709491017263e-10 0.0000000000000000e+00  7.5000825542216802e-10 -5.8684387743735303e-10 0.0000000000000000e+00  -4.2944529602868437e-10 3.9639295620277442e-10 0.0000000000000000e+00  -1.4857420646868045e-09 3.6775211275720793e-10 0.0000000000000000e+00  1.0340208786494528e-09 -5.4628061101800966e-10 0.0000000000000000e+00  -2.6548046168382299e-11 4.0970989414615462e-10 0.0000000000000000e+00  8.8071136676757550e-10 -5.7390886436335946e-10 0.0000000000000000e+00  1.0185850229491742e-09 -5.3691811491699503e-10 0.0000000000000000e+00  3.0218355228364935e-10 4.2205311949425386e-10 0.0000000000000000e+00  -9.1344880530358659e-10 3.8265212892763602e-10 0.0000000000000000e+00  9.5529876024789265e-10 -6.3604977814054818e-10 0.0000000000000000e+00  5.6338621790514987e-10 4.3381049808920625e-10 0.0000000000000000e+00  -3.3757632015923608e-10 -5.4629000293458306e-10 0.0000000000000000e+00  -3.3921351290883680e-10 5.1581945331939961e-10 0.0000000000000000e+00  -6.4091176251376614e-09 -2.7470686403199946e-10 0.0000000000000000e+00  1.8310126514060114e-11 -8.3024877009831269e-10 0.0000000000000000e+00  7.4238