<?xml version="1.0"?>
<VTKFile type="UnstructuredGrid"  version="0.1"  >
<UnstructuredGrid>
<Piece  NumberOfPoints="1419" NumberOfCells="2698">
<Points>
<DataArray  type="Float64"  NumberOfComponents="3"  format="ascii">0 0 0  0 0.41 0  2.5 0 0  2.5 0.41 0  0.6000000000946685 0.1899999999686834 0  0.6000000000945086 0.2100000000331566 0  0.25 0.2 0  0.15 0.2 0  0.2489897948556636 0.21 0  0.2489897948556636 0.19 0  0.6000000000938343 0.200000000000896 0  0 0.3807142857143437 0  0 0.3514285714286952 0  0 0.3221428571430699 0  0 0.29285714285744 0  0 0.2635714285718054 0  0 0.2342857142861561 0  0 0.2050000000005308 0  0 0.175714285714732 0  0 0.1464285714289574 0  0 0.1171428571431897 0  0 0.08785714285737878 0  0 0.05857142857161107 0  0 0.02928571428580012 0  0.03015443760436003 0 0  0.06140001986583606 0 0  0.09377624077125973 0 0  0.1273239957535082 0 0  0.1620856860351972 0 0  0.1981052433264291 0 0  0.235428184091502 0 0  0.2741016576309132 0 0  0.3141745521465447 0 0  0.3556974926295285 0 0  0.3987229542472677 0 0  0.4433053055141081 0 0  0.4895008759286886 0 0  0.5373680609405097 0 0  0.5869673343216626 0 0  0.6383613676634521 0 0  0.6916151138468254 0 0  0.7467958595648856 0 0  0.8039733463919316 0 0  0.8632198139502143 0 0  0.9246101326867038 0 0  0.9882218810934433 0 0  1.054135445558498 0 0  1.122434100542598 0 0  1.193204177141305 0 0  1.266535089879536 0 0  1.342519516046404 0 0  1.421253448503939 0 0  1.502836389106271 0 0  1.587371439758838 0 0  1.674965418777374 0 0  1.765729001825544 0 0  1.859776908880082 0 0  1.957227977487062 0 0  2.058205329869943 0 0  2.162836591189951 0 0  2.271253957290865 0 0  2.383594446803425 0 0  2.5 0.1024999999997612 0  2.5 0.2049999999994743 0  2.5 0.3074999999997183 0  2.383594446803656 0.41 0  2.271253957291315 0.41 0  2.162836591190598 0.41 0  2.058205329870775 0.41 0  1.957227977488067 0.41 0  1.859776908881246 0.41 0  1.765729001826854 0.41 0  1.674965418778818 0.41 0  1.58737143976041 0.41 0  1.502836389107956 0.41 0  1.421253448505726 0.41 0  1.342519516048286 0.41 0  1.266535089881505 0.41 0  1.193204177143353 0.41 0  1.122434100544716 0.41 0  1.05413544556068 0.41 0  0.9882218810956305 0.41 0  0.9246101326886647 0.41 0  0.8632198139519631 0.41 0  0.8039733463934788 0.41 0  0.7467958595662458 0.41 0  0.6916151138480078 0.41 0  0.6383613676644679 0.41 0  0.5869673343225223 0.41 0  0.5373680609412221 0.41 0  0.4895008759292634 0.41 0  0.4433053055145528 0.41 0  0.3987229542475914 0.41 0  0.3556974926297398 0.41 0  0.3141745521466497 0.41 0  0.2741016576310038 0.41 0  0.2354281840915826 0.41 0  0.1981052433265003 0.41 0  0.1620856860352591 0.41 0  0.1273239957535623 0.41 0  0.09377624077128965 0.41 0  0.06140001986584975 0.41 0  0.03015443760436654 0.41 0  0.2497468076502589 0.2050254481002335 0  0.2497468076502614 0.1949745518997913 0  0.2469965252529372 0.1829317073451959 0  0.2439893735792749 0.1762316384219906 0  0.2400332147834255 0.1700443375285386 0  0.2352133972704371 0.1645032867342007 0  0.2296339016332438 0.1597280261969788 0  0.2234150974217223 0.1558215752574715 0  0.2166911463437691 0.1528682099456123 0  0.2096071079204251 0.1509316448471593 0  0.2023158100364996 0.1500536585536553 0  0.194974551899914 0.1502531923497262 0  0.1877417105387872 0.1515259415822739 0  0.1807733240461124 0.153844448527136 0  0.1742197252835808 0.15715869474974 0  0.1682222986673531 0.1613971801805478 0  0.162910430003803 0.1664684656256651 0  0.1583987151779087 0.1722631454351573 0  0.1547844879126891 0.178656207771761 0  0.1521457199348551 0.1855097315605723 0  0.1505393388476355 0.1926758619366523 0  0.1505393388476328 0.2073241380633295 0  0.1521457199348437 0.2144902684393899 0  0.1547844879126531 0.221343792228163 0  0.1583987151778488 0.2277368545647528 0  0.1629104300036858 0.2335315343742052 0  0.1682222986671726 0.2386028198193036 0  0.1742197252833576 0.2428413052501257 0  0.1807733240458683 0.2461555514727623 0  0.1877417105384929 0.2484740584176516 0  0.1949745518995776 0.2497468076502398 0  0.202315810036185 0.2499463414463592 0  0.2096071079201568 0.2490683551528932 0  0.2166911463435495 0.2471317900544655 0  0.2234150974215506 0.2441784247426195 0  0.2296339016331197 0.2402719738031125 0  0.2352133972703547 0.2354967132658811 0  0.2400332147833751 0.2299556624715287 0  0.2439893735792577 0.2237683615780412 0  0.246996525252926 0.2170682926548348 0  0.2564580970811076 0.210000000111204 0  0.2639263993216391 0.2100000001107886 0  0.2713947015523905 0.2100000001063616 0  0.2788630037829103 0.2100000001020121 0  0.2863313060143293 0.2100000000987703 0  0.2937996082470413 0.2100000000955688 0  0.3012679104805963 0.2100000000924344 0  0.3087362127153324 0.2100000000896977 0  0.3162045149505837 0.2100000000869563 0  0.3236728171864615 0.2100000000847212 0  0.3311411194228179 0.2100000000822468 0  0.3386094216595671 0.2100000000802494 0  0.3460777238967275 0.210000000078168 0  0.3535460261340445 0.2100000000761667 0  0.3610143283717638 0.2100000000743971 0  0.3684826306095521 0.2100000000725973 0  0.3759509328474855 0.2100000000710622 0  0.3834192350855882 0.2100000000693666 0  0.3908875373237571 0.2100000000679828 0  0.3983558395620634 0.2100000000664512 0  0.4058241418003953 0.2100000000651483 0  0.4132924440388565 0.2100000000638041 0  0.4207607462772736 0.2100000000624732 0  0.428229048515912 0.2100000000613012 0  0.4356973507545642 0.2100000000601017 0  0.4431656529932884 0.2100000000590098 0  0.4506339552321176 0.2100000000578747 0  0.4581022574709902 0.2100000000568643 0  0.4655705597100186 0.2100000000557943 0  0.473038861949115 0.2100000000548628 0  0.4805071641883941 0.2100000000538484 0  0.4879754664278003 0.210000000052966 0  0.4954437686674292 0.2100000000520011 0  0.5029120709073485 0.2100000000511111 0  0.5103803731475588 0.2100000000501564 0  0.5178486753880772 0.2100000000492994 0  0.5253169776290172 0.2100000000483348 0  0.5327852798704854 0.2100000000474303 0  0.5402535821125947 0.2100000000463488 0  0.547721884355435 0.2100000000453164 0  0.5551901865991554 0.2100000000441195 0  0.5626584888439298 0.2100000000427286 0  0.5701267910901726 0.2100000000413265 0  0.5775950933379258 0.2100000000396038 0  0.5850633955875485 0.2100000000377018 0  0.5925316978394428 0.2100000000350936 0  0.6000000000943273 0.2050000000172486 0  0.6000000000943496 0.1949999999845429 0  0.5925316978395813 0.1899999999666566 0  0.5850633955876272 0.1899999999639739 0  0.5775950933380035 0.1899999999620802 0  0.5701267910902487 0.1899999999603451 0  0.562658488844092 0.1899999999589831 0  0.5551901865993143 0.1899999999576647 0  0.5477218843556415 0.1899999999565117 0  0.5402535821128497 0.1899999999555704 0  0.5327852798708228 0.1899999999545149 0  0.5253169776293546 0.1899999999536662 0  0.5178486753884637 0.1899999999526766 0  0.5103803731480034 0.1899999999518769 0  0.5029120709078815 0.1899999999509282 0  0.4954437686680396 0.1899999999501417 0  0.4879754664284264 0.1899999999491791 0  0.4805071641890378 0.1899999999483541 0  0.4730388619497982 0.1899999999473343 0  0.4655705597107525 0.1899999999464617 0  0.4581022574717882 0.1899999999453877 0  0.4506339552329435 0.1899999999444628 0  0.4431656529941537 0.1899999999433097 0  0.4356973507554583 0.1899999999422906 0  0.4282290485168528 0.1899999999410617 0  0.4207607462782193 0.1899999999399163 0  0.4132924440397656 0.1899999999385879 0  0.4058241418012758 0.18999999993729 0  0.3983558395628867 0.1899999999359843 0  0.3908875373245377 0.189999999934484 0  0.383419235086325 0.1899999999330433 0  0.3759509328481895 0.1899999999313999 0  0.3684826306102093 0.1899999999298308 0  0.3610143283723549 0.1899999999280858 0  0.3535460261346072 0.1899999999263304 0  0.3460777238972529 0.1899999999243464 0  0.3386094216600701 0.1899999999223063 0  0.3311411194232451 0.1899999999203025 0  0.3236728171868249 0.1899999999179513 0  0.3162045149508714 0.1899999999157285 0  0.3087362127155339 0.1899999999131479 0  0.3012679104807742 0.1899999999105544 0  0.293799608247202 0.1899999999075804 0  0.2863313060145771 0.1899999999045305 0  0.2788630037833051 0.1899999999013308 0  0.2713947015529617 0.1899999998967779 0  0.2639263993223787 0.1899999998918269 0  0.2564580970821954 0.1899999998907714 0  0.2607803159957835 0.2000727136314916 0  0.5887803774915784 0.2001272386996266 0  0.5745072404181842 0.2002044435034957 0  0.5511891430278515 0.2001122610090791 0  0.2751288526663753 0.2000000000016501 0  0.5365194309913971 0.2000000000008846 0  0.2894621222697742 0.1998691686394415 0  0.5215828265085128 0.2000000000008944 0  0.3127789816275163 0.1998657885440732 0  0.3274069683035304 0.2000000000013742 0  0.5066462220275404 0.2000000000009064 0  0.3650630746166508 0.1998660178077659 0  0.4767730130689956 0.2000000000009443 0  0.3417402379174901 0.1998691686393553 0  0.3796850839657719 0.2000000000013463 0  0.4618364085908085 0.2000000000009555 0  0.4917096175478227 0.2000000000009234 0  0.3946216884421996 0.2000000000013691 0  0.4468998041130496 0.2000000000009745 0  0.4089549580592343 0.1998691686395315 0  0.4322718174311075 0.2001274512676686 0  0.4201487167707325 0.1999966199060064 0  0.3528922712802571 0.200018570354602 0  0.563312243697376 0.1999814296475153 0  0.3006558809736447 0.199996619906291 0  0.5815926498719858 0.1966545283041675 0  0.2677053789315501 0.1964246478759087 0  0.5290511287496951 0.1970915826738059 0  0.5439877332337992 0.1970915826743327 0  0.2825131256738253 0.2035478996343518 0  0.319938666067404 0.2029084173393449 0  0.4842413153083323 0.1970915826723315 0  0.5141145242678563 0.1970915826732878 0  0.3722167817277621 0.2029084173352379 0  0.4693047108298495 0.1970915826718036 0  0.3348752705402203 0.2029084173379729 0  0.3871533862039738 0.2029084173343186 0  0.4543681063519044 0.1970915826712566 0  0.49917791978757 0.1970915826728173 0  0.4020059614574064 0.2035478996218475 0  0.4394315018743135 0.1970915826706513 0  0.2550657455522207 0.2034088125676477 0  0.2548908499325616 0.1966940311320876 0  0.59465395110
[...]
<PointData  Vectors="f_44-1"> 
<DataArray  type="Float64"  Name="f_44-1"  NumberOfComponents="3" format="ascii">0.0000000000000000e+00 0.0000000000000000e+00 0.0000000000000000e+00  0.0000000000000000e+00 0.0000000000000000e+00 0.0000000000000000e+00  0.0000000000000000e+00 0.0000000000000000e+00 0.0000000000000000e+00  0.0000000000000000e+00 0.0000000000000000e+00 0.0000000000000000e+00  9.4668485595590377e-11 -3.1316589461497102e-11 0.0000000000000000e+00  9.4508604953869735e-11 3.3156615951517610e-11 0.0000000000000000e+00  0.0000000000000000e+00 0.0000000000000000e+00 0.0000000000000000e+00  0.0000000000000000e+00 0.0000000000000000e+00 0.0000000000000000e+00  0.0000000000000000e+00 0.0000000000000000e+00 0.0000000000000000e+00  0.0000000000000000e+00 0.0000000000000000e+00 0.0000000000000000e+00  9.3834225161306995e-11 8.9601136609670521e-13 0.0000000000000000e+00  0.0000000000000000e+00 0.0000000000000000e+00 0.0000000000000000e+00  0.0000000000000000e+00 0.0000000000000000e+00 0.0000000000000000e+00  0.0000000000000000e+00 0.0000000000000000e+00 0.0000000000000000e+00  0.0000000000000000e+00 0.0000000000000000e+00 0.0000000000000000e+00  0.0000000000000000e+00 0.0000000000000000e+00 0.0000000000000000e+00  0.0000000000000000e+00 0.0000000000000000e+00 0.0000000000000000e+00  0.0000000000000000e+00 0.0000000000000000e+00 0.0000000000000000e+00  0.0000000000000000e+00 0.0000000000000000e+00 0.0000000000000000e+00  0.0000000000000000e+00 0.0000000000000000e+00 0.0000000000000000e+00  0.0000000000000000e+00 0.0000000000000000e+00 0.0000000000000000e+00  0.0000000000000000e+00 0.0000000000000000e+00 0.0000000000000000e+00  0.0000000000000000e+00 0.0000000000000000e+00 0.0000000000000000e+00  0.0000000000000000e+00 0.0000000000000000e+00 0.0000000000000000e+00  0.0000000000000000e+00 0.0000000000000000e+00 0.0000000000000000e+00  0.0000000000000000e+00 0.0000000000000000e+00 0.0000000000000000e+00  0.0000000000000000e+00 0.0000000000000000e+00 0.0000000000000000e+00  0.0000000000000000e+00 0.0000000000000000e+00 0.0000000000000000e+00  0.0000000000000000e+00 0.0000000000000000e+00 0.0000000000000000e+00  0.0000000000000000e+00 0.0000000000000000e+00 0.0000000000000000e+00  0.0000000000000000e+00 0.0000000000000000e+00 0.0000000000000000e+00  0.0000000000000000e+00 0.0000000000000000e+00 0.0000000000000000e+00  0.0000000000000000e+00 0.0000000000000000e+00 0.0000000000000000e+00  0.0000000000000000e+00 0.0000000000000000e+00 0.0000000000000000e+00  0.0000000000000000e+00 0.0000000000000000e+00 0.0000000000000000e+00  0.0000000000000000e+00 0.0000000000000000e+00 0.0000000000000000e+00  0.0000000000000000e+00 0.0000000000000000e+00 0.0000000000000000e+00  0.0000000000000000e+00 0.0000000000000000e+00 0.0000000000000000e+00  0.0000000000000000e+00 0.0000000000000000e+00 0.0000000000000000e+00  0.0000000000000000e+00 0.0000000000000000e+00 0.0000000000000000e+00  0.0000000000000000e+00 0.0000000000000000e+00 0.0000000000000000e+00  0.0000000000000000e+00 0.0000000000000000e+00 0.0000000000000000e+00  0.0000000000000000e+00 0.0000000000000000e+00 0.0000000000000000e+00  0.0000000000000000e+00 0.0000000000000000e+00 0.0000000000000000e+00  0.0000000000000000e+00 0.0000000000000000e+00 0.0000000000000000e+00  0.0000000000000000e+00 0.0000000000000000e+00 0.0000000000000000e+00  0.0000000000000000e+00 0.0000000000000000e+00 0.0000000000000000e+00  0.0000000000000000e+00 0.0000000000000000e+00 0.0000000000000000e+00  0.0000000000000000e+00 0.0000000000000000e+00 0.0000000000000000e+00  0.0000000000000000e+00 0.0000000000000000e+00 0.0000000000000000e+00  0.0000000000000000e+00 0.0000000000000000e+00 0.0000000000000000e+00  0.0000000000000000e+00 0.0000000000000000e+00 0.0000000000000000e+00  0.0000000000000000e+00 0.0000000000000000e+00 0.0000000000000000e+00  0.0000000000000000e+00 0.0000000000000000e+00 0.0000000000000000e+00  0.0000000000000000e+00 0.0000000000000000e+00 0.0000000000000000e+00  0.0000000000000000e+00 0.0000000000000000e+00 0.0000000000000000e+00  0.0000000000000000e+00 0.0000000000000000e+00 0.0000000000000000e+00  0.0000000000000000e+00 0.0000000000000000e+00 0.0000000000000000e+00  0.0000000000000000e+00 0.0000000000000000e+00 0.0000000000000000e+00  0.0000000000000000e+00 0.0000000000000000e+00 0.0000000000000000e+00  0.0000000000000000e+00 0.0000000000000000e+00 0.0000000000000000e+00  0.0000000000000000e+00 0.0000000000000000e+00 0.0000000000000000e+00  0.0000000000000000e+00 0.0000000000000000e+00 0.0000000000000000e+00  0.0000000000000000e+00 0.0000000000000000e+00 0.0000000000000000e+00  0.0000000000000000e+00 0.0000000000000000e+00 0.0000000000000000e+00  0.0000000000000000e+00 0.0000000000000000e+00 0.0000000000000000e+00  0.0000000000000000e+00 0.0000000000000000e+00 0.0000000000000000e+00  0.0000000000000000e+00 0.0000000000000000e+00 0.0000000000000000e+00  0.0000000000000000e+00 0.0000000000000000e+00 0.0000000000000000e+00  0.0000000000000000e+00 0.0000000000000000e+00 0.0000000000000000e+00  0.0000000000000000e+00 0.0000000000000000e+00 0.0000000000000000e+00  0.0000000000000000e+00 0.0000000000000000e+00 0.0000000000000000e+00  0.0000000000000000e+00 0.0000000000000000e+00 0.0000000000000000e+00  0.0000000000000000e+00 0.0000000000000000e+00 0.0000000000000000e+00  0.0000000000000000e+00 0.0000000000000000e+00 0.0000000000000000e+00  0.0000000000000000e+00 0.0000000000000000e+00 0.0000000000000000e+00  0.0000000000000000e+00 0.0000000000000000e+00 0.0000000000000000e+00  0.0000000000000000e+00 0.0000000000000000e+00 0.0000000000000000e+00  0.0000000000000000e+00 0.0000000000000000e+00 0.0000000000000000e+00  0.0000000000000000e+00 0.0000000000000000e+00 0.0000000000000000e+00  0.0000000000000000e+00 0.0000000000000000e+00 0.0000000000000000e+00  0.0000000000000000e+00 0.0000000000000000e+00 0.0000000000000000e+00  0.0000000000000000e+00 0.0000000000000000e+00 0.0000000000000000e+00  0.0000000000000000e+00 0.0000000000000000e+00 0.0000000000000000e+00  0.0000000000000000e+00 0.0000000000000000e+00 0.0000000000000000e+00  0.0000000000000000e+00 0.0000000000000000e+00 0.0000000000000000e+00  0.0000000000000000e+00 0.0000000000000000e+00 0.0000000000000000e+00  0.0000000000000000e+00 0.0000000000000000e+00 0.0000000000000000e+00  0.0000000000000000e+00 0.0000000000000000e+00 0.0000000000000000e+00  0.0000000000000000e+00 0.0000000000000000e+00 0.0000000000000000e+00  0.0000000000000000e+00 0.0000000000000000e+00 0.0000000000000000e+00  0.0000000000000000e+00 0.0000000000000000e+00 0.0000000000000000e+00  0.0000000000000000e+00 0.0000000000000000e+00 0.0000000000000000e+00  0.0000000000000000e+00 0.0000000000000000e+00 0.0000000000000000e+00  0.0000000000000000e+00 0.0000000000000000e+00 0.0000000000000000e+00  0.0000000000000000e+00 0.0000000000000000e+00 0.0000000000000000e+00  0.0000000000000000e+00 0.0000000000000000e+00 0.0000000000000000e+00  0.0000000000000000e+00 0.0000000000000000e+00 0.0000000000000000e+00  0.0000000000000000e+00 0.0000000000000000e+00 0.0000000000000000e+00  0.0000000000000000e+00 0.0000000000000000e+00 0.0000000000000000e+00  0.0000000000000000e+00 0.0000000000000000e+00 0.0000000000000000e+00  0.0000000000000000e+00 0.0000000000000000e+00 0.0000000000000000e+00  0.0000000000000000e+00 0.0000000000000000e+00 0.0000000000000000e+00  0.0000000000000000e+00 0.0000000000000000e+00 0.0000000000000000e+00  0.0000000000000000e+00 0.0000000000000000e+00 0.0000000000000000e+00  0.0000000000000000e+00 0.0000000000000000e+00 0.0000000000000000e+00  0.0000000000000000e+00 0.0000000000000000e+00 0.0000000000000000e+00  0.0000000000000000e+00 0.0000000000000000e+00 0.0000000000000000e+00  0.0000000000000000e+00 0.0000000000000000e+00 0.0000000000000000e+00  0.0000000000000000e+00 0.0000000000000000e+00 0.0000000000000000e+00  0.0000000000000000e+00 0.0000000000000000e+00 0.0000000000000000e+00  0.0000000000000000e+00 0.0000000000000000e+00 0.0000000000000000e+00  0.0000000000000000e+00 0.0000000000000000e+00 0.0000000000000000e+00  0.0000000000000000e+00 0.0000000000000000e+00 0.0000000000000000e+00  0.0000000000000000e+00 0.0000000000000000e+00 0.0000000000000000e+00  0.0000000000000000e+00 0.0000000000000000e+00 0.0000000000000000e+00  0.0000000000000000e+00 0.0000000000000000e+00 0.0000000000000000e+00  0.0000000000000000e+00 0.0000000000000000e+00 0.0000000000000000e+00  0.0000000000000000e+00 0.0000000000000000e+00 0.0000000000000000e+00  0.0000000000000000e+00 0.0000000000000000e+00 0.0000000000000000e+00  0.0000000000000000e+00 0.0000000000000000e+00 0.0000000000000000e+00  0.0000000000000000e+00 0.0000000000000000e+00 0.0000000000000000e+00  0.0000000000000000e+00 0.0000000000000000e+00 0.0000000000000000e+00  0.0000000000000000e+00 0.0000000000000000e+00 0.0000000000000000e+00  0.0000000000000000e+00 0.0000000000000000e+00 0.0000000000000000e+00  0.0000000000000000e+00 0.0000000000000000e+00 0.0000000000000000e+00  0.0000000000000000e+00 0.0000000000000000e+00 0.0000000000000000e+00  0.0000000000000000e+00 0.0000000000000000e+00 0.0000000000000000e+00  0.0000000000000000e+00 0.0000000000000000e+00 0.0000000000000000e+00  0.0000000000000000e+00 0.0000000000000000e+00 0.0000000000000000e+00  0.0000000000000000e+00 0.0000000000000000e+00 0.0000000000000000e+00  0.0000000000000000e+00 0.0000000000000000e+00 0.0000000000000000e+00  0.0000000000000000e+00 0.0000000000000000e+00 0.0000000000000000e+00  0.0000000000000000e+00 0.0000000000000000e+00 0.0000000000000000e+00  0.0000000000000000e+00 0.0000000000000000e+00 0.0000000000000000e+00  0.0000000000000000e+00 0.0000000000000000e+00 0.0000000000000000e+00  0.0000000000000000e+00 0.0000000000000000e+00 0.0000000000000000e+00  0.0000000000000000e+00 0.0000000000000000e+00 0.0000000000000000e+00  0.0000000000000000e+00 0.0000000000000000e+00 0.0000000000000000e+00  0.0000000000000000e+00 0.0000000000000000e+00 0.0000000000000000e+00  0.0000000000000000e+00 0.0000000000000000e+00 0.0000000000000000e+00  0.0000000000000000e+00 0.0000000000000000e+00 0.0000000000000000e+00  0.0000000000000000e+00 0.0000000000000000e+00 0.0000000000000000e+00  -1.1662434459828763e-11 1.1120399591361998e-10 0.0000000000000000e+00  -8.2263648394187885e-12 1.1078856357770068e-10 0.0000000000000000e+00  -1.4570503803202295e-11 1.0636157542770362e-10 0.0000000000000000e+00  -2.1145057861675387e-11 1.0201213130790056e-10 0.0000000000000000e+00  -2.6818681989361539e-11 9.8770354590183062e-11 0.0000000000000000e+00  -3.1199210196333667e-11 9.5568842477426590e-11 0.0000000000000000e+00  -3.4736788598410122e-11 9.2434372962555235e-11 0.0000000000000000e+00  -3.7095469356918620e-11 8.9697672947985066e-11 0.0000000000000000e+00  -3.8939725368529481e-11 8.6956291642889749e-11 0.0000000000000000e+00  -4.0135663786779005e-11 8.4721204261495834e-11 0.0000000000000000e+00  -4.0874932815363653e-11 8.2246773635393080e-11 0.0000000000000000e+00  -4.1202966777300035e-11 8.0249442429057209e-11 0.0000000000000000e+00  -4.1139115921493535e-11 7.8168039217639025e-11 0.0000000000000000e+00  -4.0922755233141625e-11 7.6166723253738269e-11 0.0000000000000000e+00  -4.0287845614063545e-11 7.4397130014792943e-11 0.0000000000000000e+00  -3.9607494748294388e-11 7.2597325314233158e-11 0.0000000000000000e+00  -3.8737044444914751e-11 7.1062234634319532e-11 0.0000000000000000e+00  -3.7740777659660583e-11 6.9366586669171030e-11 0.0000000000000000e+00  -3.6645759690074035e-11 6.7982770025010649e-11 0.0000000000000000e+00  -3.5450730629147389e-11 6.6451174592116788e-11 0.0000000000000000e+00  -3.4198497906483743e-11 6.5148314555964270e-11 0.0000000000000000e+00  -3.2842683057163406e-11 6.3804108945258340e-11 0.0000000000000000e+00  -3.1515155510873273e-11 6.2473156259665841e-11 0.0000000000000000e+00  -2.9990861726032771e-11 6.1301181958411047e-11 0.0000000000000000e+00  -2.8477539774155624e-11 6.0101693889687387e-11 0.0000000000000000e+00  -2.6876566625302754e-11 5.9009819262675085e-11 0.0000000000000000e+00  -2.5195977688825690e-11 5.7874696414111759e-11 0.0000000000000000e+00  -2.3440429715823721e-11 5.6864271371694650e-11 0.0000000000000000e+00  -2.1566593113975521e-11 5.5794265179990445e-11 0.0000000000000000e+00  -1.9584545891755445e-11 5.4862798506052650e-11 0.0000000000000000e+00  -1.7456861677819321e-11 5.3848412800224142e-11 0.0000000000000000e+00  -1.5149509016392450e-11 5.2965956820411591e-11 0.0000000000000000e+00  -1.2664643804255746e-11 5.2001101665973829e-11 0.0000000000000000e+00  -9.9185526751675028e-12 5.1111057550470507e-11 0.0000000000000000e+00  -6.8530461670237623e-12 5.0156409059960790e-11 0.0000000000000000e+00  -3.4489382269150574e-12 4.9299443353864650e-11 0.0000000000000000e+00  3.7685945588764088e-13 4.8334833078989474e-11 0.0000000000000000e+00  4.6985723325026295e-12 4.7430314081018998e-11 0.0000000000000000e+00  9.6560524378110652e-12 4.6348809487454075e-11 0.0000000000000000e+00  1.5365021890514658e-11 4.5316350649381537e-11 0.0000000000000000e+00  2.1971220518895884e-11 4.4119514747098817e-11 0.0000000000000000e+00  2.9609613464852296e-11 4.2728614308149198e-11 0.0000000000000000e+00  3.8694859039921537e-11 4.1326482810066542e-11 0.0000000000000000e+00  4.9312029623457929e-11 3.9603787260593047e-11 0.0000000000000000e+00  6.1820477670627554e-11 3.7701756431330554e-11 0.0000000000000000e+00  7.6594484695742163e-11 3.5093610225748137e-11 0.0000000000000000e+00  9.4327324115258266e-11 1.7243240512259763e-11 0.0000000000000000e+00  9.4349626073144344e-11 -1.5478821194024857e-11 0.0000000000000000e+00  7.6691558573631521e-11 -3.3343448470686026e-11 0.0000000000000000e+00  6.1828380284105020e-11 -3.6026096893853521e-11 0.0000000000000000e+00  4.9265651439918132e-11 -3.7919796913706666e-11 0.0000000000000000e+00  3.8648830112459263e-11 -3.9654930489646012e-11 0.0000000000000000e+00  2.9565107736483038e-11 -4.1016927615636539e-11 0.0000000000000000e+00  2.1918070092066308e-11 -4.2335265363496183e-11 0.0000000000000000e+00  1.5302541576218404e-11 -4.3488305479125539e-11 0.0000000000000000e+00  9.6067874235998003e-12 -4.4429639502415895e-11 0.0000000000000000e+00  4.6417125333750133e-12 -4.5485059110654264e-11 0.0000000000000000e+00  3.0090597201919749e-13 -4.6333785344676110e-11 0.0000000000000000e+00  -3.5161385554622019e-12 -4.7323375554943299e-11 0.0000000000000000e+00  -6.9043402125620815e-12 -4.8123065030677502e-11 0.0000000000000000e+00  -9.9405301448646066e-12 -4.9071763657638425e-11 0.0000000000000000e+00  -1.2689789648596116e-11 -4.9858286781212450e-11 0.0000000000000000e+00  -1.5195885397100483e-11 -5.0820864668762672e-11 0.0000000000000000e+00  -1.7502444408074989e-11 -5.1645918545081838e-11 0.0000000000000000e+00  -1.9628932974369895e-11 -5.2665704286756292e-11 0.0000000000000000e+00  -2.1609681901981234e-11 -5.3538317812698924e-11 0.0000000000000000e+00  -2.3468137646866856e-11 -5.4612296451460748e-11 0.0000000000000000e+00  -2.5234209437777781e-11 -5.5537226001010108e-11 0.0000000000000000e+00  -2.6913377749986947e-11 -5.6690299338388297e-11 0.0000000000000000e+00  -2.8523112492572176e-11 -5.7709364295356135e-11 0.0000000000000000e+00  -3.0025050779291622e-11 -5.8938306504620237e-11 0.0000000000000000e+00  -3.1542377762753418e-11 -6.0083652023828142e-11 0.0000000000000000e+00  -3.2867090066392707e-11 -6.1412126027654299e-11 0.0000000000000000e+00  -3.4209926377044510e-11 -6.2709986771106053e-11 0.0000000000000000e+00  -3.5476874593831819e-11 -6.4015732852189560e-11 0.0000000000000000e+00  -3.6671972653496939e-11 -6.5515991948913658e-11 0.0000000000000000e+00  -3.7768388730351292e-11 -6.6956724673862818e-11 0.0000000000000000e+00  -3.8747394980487078e-11 -6.8600114505159047e-11 0.0000000000000000e+00  -3.9608215141898798e-11 -7.0169189480251427e-11 0.0000000000000000e+00  -4.0312080773094070e-11 -7.1914237245580240e-11 0.0000000000000000e+00  -4.0954511857245013e-11 -7.3669600660452800e-11 0.0000000000000000e+00  -4.1176591276081000e-11 -7.5653628585756944e-11 0.0000000000000000e+00  -4.1224406468638373e-11 -7.7693693370956033e-11 0.0000000000000000e+00  -4.0914318354260256e-11 -7.9697523415962264e-11 0.0000000000000000e+00  -4.0199600508086718e-11 -8.2048730450905232e-11 0.0000000000000000e+00  -3.9018048853564335e-11 -8.4271483714881002e-11 0.0000000000000000e+00  -3.7220501200869619e-11 -8.6852137861202230e-11 0.0000000000000000e+00  -3.4844464480514463e-11 -8.9445643255970973e-11 0.0000000000000000e+00  -3.1278649052124621e-11 -9.2419558846518809e-11 0.0000000000000000e+00  -2.6765777404588320e-11 -9.5469463090471368e-11 0.0000000000000000e+00  -2.0899720746188315e-11 -9.8669174697211017e-11 0.0000000000000000e+00  -1.4106844843191872e-11 -1.0322209883109059e-10 0.0000000000000000e+00  -7.5549040622086086e-12 -1.0817310540016289e-10 0.0000000000000000e+00  -1.0603071170235330e-11 -1.0922859380246835e-10 0.0000000000000000e+00  3.5809218027213643e-12 1.9101308687362032e-12 0.0000000000000000e+00  6.8302290330705933e-11 1.2533315951441778e-12 0.0000000000000000e+00  4.4131928666569585e-11 1.6230025397597978e-12 0.0000000000000000e+00  1.7880582177485346e-11 1.3678505858202848e-12 0.0000000000000000e+00  -1.9132844188184542e-11 1.6300988441116712e-12 0.0000000000000000e+00  6.6859267889977694e-12 9.4093141764667063e-13 0.0000000000000000e+00  -3.0190675556314922e-11 3.9304456332911999e-13 0.0000000000000000e+00  -2.0026014280765282e-12 9.7163389793358469e-13 0.0000000000000000e+00  -3.9358530309989765e-11 1.9269906344540536e-13 0.0000000000000000e+00  -4.1614672420444759e-11 1.2946661164255338e-12 0.0000000000000000e+00  -8.8237216429170669e-12 9.9836949796984294e-13 0.0000000000000000e+00  -4.0757329292157284e-11 2.4291053848494247e-13 0.0000000000000000e+00  -1.8989355278417630e-11 1.0730199240247443e-12 0.0000000000000000e+00  -4.2148397050703519e-11 2.5418421788902125e-13 0.0000000000000000e+00  -3.9003641972796333e-11 1.2123435524034741e-12 0.0000000000000000e+00  -2.3000225652688732e-11 1.1008635004325610e-12 0.0000000000000000e+00  -1.4353456334352613e-11 1.0425617703541241e-12 0.0000000000000000e+00  -3.6757221406295377e-11 1.2179261289995027e-12 0.0000000000000000e+00  -2.6571367461443357e-11 1.1355951825187159e-12 0.0000000000000000e+00  -3.4286484103363899e-11 3.7196891596062228e-13 0.0000000000000000e+00  -2.9748654184930888e-11 1.9235961659796760e-12 0.0000000000000000e+00  -3.2238219524246441e-11 1.1537065615429748e-12 0.0000000000000000e+00  -4.1836102297110280e-11 1.3664663839241058e-12 0.0000000000000000e+00  2.9917093368557069e-11 7.6450028110575168e-13 0.0000000000000000e+00  -3.5742559340047941e-11 1.4591689121775982e-12 0.0000000000000000e+00  5.5145133903113776e-11 -1.1749949642484101e-11 0.0000000000000000e+00  -1.0353325612092617e-11 -3.7623844924428325e-11 0.0000000000000000e+00  2.0775252570862132e-12 -1.2592202326656679e-11 0.0000000000000000e+00  1.2008222321161197e-11 -1.2061312845815225e-11 0.0000000000000000e+00  -2.5496272096711307e-11 3.6550294149533802e-11 0.0000000000000000e+00  -4.0655845310012570e-11 2.5740886558938965e-11 0.0000000000000000e+00  -1.6748658596799035e-11 -1.4055792754946749e-11 0.0000000000000000e+00  -5.5903141436425417e-12 -1.3096477310979872e-11 0.0000000000000000e+00  -3.9929596041975232e-11 2.1618428350046669e-11 0.0000000000000000e+00  -2.1044320474555561e-11 -1.4574707328161349e-11 0.0000000000000000e+00  -4.2011315031364390e-11 2.4363909636272411e-11 0.0000000000000000e+00  -3.7892340796477670e-11 2.0697408896524058e-11 0.0000000000000000e+00  -2.4813945503758159e-11 -1.5122913841517139e-11 0.0000000000000000e+00  -1.1704870397080646e-11 -1.3572959858340498e-11 0.0000000000000000e+00  -3.5456013473947968e-11 2.3989515295378704e-11 0.0000000000000000e+00  -2.8211091849123894e-11 -1.5720102538727785e-11 0.0000000000000000e+00  1.5265624852870513e-11 3.1781972946212103e-11 0.0000000000000000e+00  1.5445460577402284e-11 -2.9339524880538488e-11 0.0000000000000000e+00  8.1053731094587091e-11 8.9760123188851016e-12 0.0000000000000000e+00  -1.0622773334354416e-11 4.5203684362967735e-11 0.000000