<?xml version="1.0"?>
<VTKFile type="UnstructuredGrid"  version="0.1"  >
<UnstructuredGrid>
<Piece  NumberOfPoints="1419" NumberOfCells="2698">
<Points>
<DataArray  type="Float64"  NumberOfComponents="3"  format="ascii">0 0 0  0 0.41 0  2.5 0 0  2.5 0.41 0  0.5999999961748065 0.1900000009145125 0  0.5999999961813859 0.2099999990295388 0  0.25 0.2 0  0.15 0.2 0  0.2489897948556636 0.21 0  0.2489897948556636 0.19 0  0.5999999961883605 0.199999999972402 0  0 0.3807142857143437 0  0 0.3514285714286952 0  0 0.3221428571430699 0  0 0.29285714285744 0  0 0.2635714285718054 0  0 0.2342857142861561 0  0 0.2050000000005308 0  0 0.175714285714732 0  0 0.1464285714289574 0  0 0.1171428571431897 0  0 0.08785714285737878 0  0 0.05857142857161107 0  0 0.02928571428580012 0  0.03015443760436003 0 0  0.06140001986583606 0 0  0.09377624077125973 0 0  0.1273239957535082 0 0  0.1620856860351972 0 0  0.1981052433264291 0 0  0.235428184091502 0 0  0.2741016576309132 0 0  0.3141745521465447 0 0  0.3556974926295285 0 0  0.3987229542472677 0 0  0.4433053055141081 0 0  0.4895008759286886 0 0  0.5373680609405097 0 0  0.5869673343216626 0 0  0.6383613676634521 0 0  0.6916151138468254 0 0  0.7467958595648856 0 0  0.8039733463919316 0 0  0.8632198139502143 0 0  0.9246101326867038 0 0  0.9882218810934433 0 0  1.054135445558498 0 0  1.122434100542598 0 0  1.193204177141305 0 0  1.266535089879536 0 0  1.342519516046404 0 0  1.421253448503939 0 0  1.502836389106271 0 0  1.587371439758838 0 0  1.674965418777374 0 0  1.765729001825544 0 0  1.859776908880082 0 0  1.957227977487062 0 0  2.058205329869943 0 0  2.162836591189951 0 0  2.271253957290865 0 0  2.383594446803425 0 0  2.5 0.1024999999997612 0  2.5 0.2049999999994743 0  2.5 0.3074999999997183 0  2.383594446803656 0.41 0  2.271253957291315 0.41 0  2.162836591190598 0.41 0  2.058205329870775 0.41 0  1.957227977488067 0.41 0  1.859776908881246 0.41 0  1.765729001826854 0.41 0  1.674965418778818 0.41 0  1.58737143976041 0.41 0  1.502836389107956 0.41 0  1.421253448505726 0.41 0  1.342519516048286 0.41 0  1.266535089881505 0.41 0  1.193204177143353 0.41 0  1.122434100544716 0.41 0  1.05413544556068 0.41 0  0.9882218810956305 0.41 0  0.9246101326886647 0.41 0  0.8632198139519631 0.41 0  0.8039733463934788 0.41 0  0.7467958595662458 0.41 0  0.6916151138480078 0.41 0  0.6383613676644679 0.41 0  0.5869673343225223 0.41 0  0.5373680609412221 0.41 0  0.4895008759292634 0.41 0  0.4433053055145528 0.41 0  0.3987229542475914 0.41 0  0.3556974926297398 0.41 0  0.3141745521466497 0.41 0  0.2741016576310038 0.41 0  0.2354281840915826 0.41 0  0.1981052433265003 0.41 0  0.1620856860352591 0.41 0  0.1273239957535623 0.41 0  0.09377624077128965 0.41 0  0.06140001986584975 0.41 0  0.03015443760436654 0.41 0  0.2497468076502589 0.2050254481002335 0  0.2497468076502614 0.1949745518997913 0  0.2469965252529372 0.1829317073451959 0  0.2439893735792749 0.1762316384219906 0  0.2400332147834255 0.1700443375285386 0  0.2352133972704371 0.1645032867342007 0  0.2296339016332438 0.1597280261969788 0  0.2234150974217223 0.1558215752574715 0  0.2166911463437691 0.1528682099456123 0  0.2096071079204251 0.1509316448471593 0  0.2023158100364996 0.1500536585536553 0  0.194974551899914 0.1502531923497262 0  0.1877417105387872 0.1515259415822739 0  0.1807733240461124 0.153844448527136 0  0.1742197252835808 0.15715869474974 0  0.1682222986673531 0.1613971801805478 0  0.162910430003803 0.1664684656256651 0  0.1583987151779087 0.1722631454351573 0  0.1547844879126891 0.178656207771761 0  0.1521457199348551 0.1855097315605723 0  0.1505393388476355 0.1926758619366523 0  0.1505393388476328 0.2073241380633295 0  0.1521457199348437 0.2144902684393899 0  0.1547844879126531 0.221343792228163 0  0.1583987151778488 0.2277368545647528 0  0.1629104300036858 0.2335315343742052 0  0.1682222986671726 0.2386028198193036 0  0.1742197252833576 0.2428413052501257 0  0.1807733240458683 0.2461555514727623 0  0.1877417105384929 0.2484740584176516 0  0.1949745518995776 0.2497468076502398 0  0.202315810036185 0.2499463414463592 0  0.2096071079201568 0.2490683551528932 0  0.2166911463435495 0.2471317900544655 0  0.2234150974215506 0.2441784247426195 0  0.2296339016331197 0.2402719738031125 0  0.2352133972703547 0.2354967132658811 0  0.2400332147833751 0.2299556624715287 0  0.2439893735792577 0.2237683615780412 0  0.246996525252926 0.2170682926548348 0  0.256458097295489 0.2099999977857447 0  0.2639263994530104 0.2099999977245255 0  0.2713947018241846 0.2099999977644444 0  0.278863004216322 0.209999997807024 0  0.2863313066019708 0.2099999978379793 0  0.2937996089681728 0.2099999978717444 0  0.3012679113198792 0.2099999979067805 0  0.3087362136524653 0.2099999979412648 0  0.3162045159724304 0.2099999979760488 0  0.323672818277901 0.2099999980056837 0  0.3311411205707078 0.2099999980387371 0  0.3386094228513447 0.2099999980657701 0  0.3460777251201189 0.2099999980943771 0  0.3535460273800128 0.2099999981209604 0  0.3610143296281441 0.2099999981460818 0  0.3684826318694011 0.2099999981707373 0  0.3759509341023086 0.2099999981921548 0  0.3834192363280084 0.2099999982160182 0  0.3908875385470861 0.2099999982356604 0  0.3983558407597669 0.2099999982578354 0  0.4058241429667839 0.209999998276894 0  0.413292445167611 0.2099999982971833 0  0.4207607473641355 0.209999998316806 0  0.4282290495531542 0.2099999983358894 0  0.4356973517375962 0.2099999983551395 0  0.4431656539157698 0.2099999983733577 0  0.4506339560876713 0.2099999983930135 0  0.4581022582530359 0.2099999984112798 0  0.4655705604107472 0.2099999984315698 0  0.4730388625606292 0.2099999984501248 0  0.4805071647014149 0.2099999984714372 0  0.4879754668319713 0.2099999984910619 0  0.4954437689519204 0.209999998513895 0  0.5029120710587609 0.2099999985361928 0  0.5103803731505107 0.2099999985613928 0  0.5178486752264961 0.2099999985851577 0  0.5253169772842291 0.2099999986132208 0  0.5327852793218129 0.2099999986406199 0  0.5402535813355172 0.2099999986741634 0  0.5477218833228608 0.209999998706659 0  0.5551901852807053 0.2099999987444485 0  0.5626584872071042 0.2099999987860628 0  0.5701267890926425 0.2099999988291407 0  0.5775950909385081 0.2099999988778496 0  0.5850633927386787 0.2099999989287797 0  0.5925316944909402 0.2099999989934382 0  0.599999996178365 0.2049999994940524 0  0.5999999961765682 0.1950000004514369 0  0.592531694486399 0.1900000009549455 0  0.5850633927365795 0.1900000010227602 0  0.5775950909382568 0.1900000010747024 0  0.5701267890929848 0.1900000011247235 0  0.5626584872079597 0.1900000011673679 0  0.5551901852821887 0.1900000012073592 0  0.5477218833248636 0.1900000012442445 0  0.5402535813372631 0.1900000012740211 0  0.5327852793238345 0.1900000013069588 0  0.5253169772867763 0.1900000013327721 0  0.5178486752288518 0.1900000013617991 0  0.5103803731524281 0.1900000013842162 0  0.5029120710599414 0.1900000014093111 0  0.4954437689532142 0.1900000014289077 0  0.4879754668338721 0.1900000014515381 0  0.4805071647032793 0.1900000014698064 0  0.4730388625624656 0.1900000014912066 0  0.4655705604125552 0.190000001508537 0  0.4581022582545455 0.190000001528774 0  0.4506339560893467 0.190000001545392 0  0.4431656539174453 0.1900000015653046 0  0.4356973517393637 0.1900000015822991 0  0.4282290495548069 0.1900000016018736 0  0.4207607473656044 0.1900000016204948 0  0.4132924451689711 0.1900000016400779 0  0.4058241429678439 0.1900000016596226 0  0.3983558407609409 0.1900000016787807 0  0.3908875385481821 0.1900000017005348 0  0.3834192363290937 0.1900000017211814 0  0.3759509341031249 0.190000001744505 0  0.3684826318701628 0.1900000017665078 0  0.3610143296293069 0.1900000017905868 0  0.3535460273815892 0.1900000018153828 0  0.3460777251220999 0.1900000018413765 0  0.3386094228536169 0.1900000018685159 0  0.3311411205736154 0.1900000018943983 0  0.3236728182814452 0.1900000019240141 0  0.3162045159761624 0.1900000019511169 0  0.3087362136561308 0.1900000019815638 0  0.3012679113216742 0.1900000020121133 0  0.2937996089674395 0.1900000020447561 0  0.2863313065965133 0.1900000020785848 0  0.278863004205429 0.1900000021144263 0  0.2713947018084666 0.1900000021692292 0  0.2639263994351818 0.1900000022275685 0  0.2564580972736785 0.1900000021822077 0  0.2607803158555014 0.200072713594119 0  0.5887803744125559 0.2001272386615409 0  0.5745072382061601 0.2002044434558907 0  0.5511891418794481 0.2001122609697078 0  0.275128853021011 0.1999999999630064 0  0.5365194303436024 0.1999999999740744 0  0.289462122927929 0.1998691686237132 0  0.5215828262688675 0.1999999999732505 0  0.312778982627365 0.199865788533433 0  0.3274069694390389 0.1999999999659808 0  0.5066462221163576 0.1999999999726756 0  0.365063075886904 0.1998660178004763 0  0.4767730136413823 0.1999999999706558 0  0.3417402391363285 0.1998691686312617 0  0.379685085225617 0.1999999999686258 0  0.461836409341944 0.1999999999700052 0  0.491709617902824 0.1999999999714641 0  0.394621689663379 0.1999999999683521 0  0.4468998050117228 0.1999999999692613 0  0.4089549592199037 0.1998691686295751 0  0.4322718184486307 0.2001274512139201 0  0.4201487178701944 0.1999966198741633 0  0.3528922725361552 0.2000185703181541 0  0.5633122420431907 0.1999814296258141 0  0.3006558818174583 0.1999966198644366 0  0.5815926472531725 0.1966545286501402 0  0.2677053790834414 0.1964246487005904 0  0.5290511283166537 0.1970915830512009 0  0.5439877323444118 0.1970915830344333 0  0.2825131261973257 0.2035478987980391 0  0.3199386671392921 0.2029084167047102 0  0.4842413157769918 0.1970915830902213 0  0.5141145242006966 0.1970915830661998 0  0.372216782995978 0.2029084167631016 0  0.4693047114955406 0.1970915831010879 0  0.3348752717237222 0.2029084167246486 0  0.3871533874471109 0.202908416775968 0  0.4543681071799306 0.1970915831113982 0  0.4991779200158126 0.1970915830789284 0  0.4020059626491544 0.2035478989634256 0  0.4394315028362822 0.1970915831216802 0  0.2550657451954018 0.2034088119072716 0  0.2548908495723911 0.1966940317469017 0  0.5946539476004754 0.20
[...]
<PointData  Vectors="f_44-1"> 
<DataArray  type="Float64"  Name="f_44-1"  NumberOfComponents="3" format="ascii">0.0000000000000000e+00 0.0000000000000000e+00 0.0000000000000000e+00  0.0000000000000000e+00 0.0000000000000000e+00 0.0000000000000000e+00  0.0000000000000000e+00 0.0000000000000000e+00 0.0000000000000000e+00  0.0000000000000000e+00 0.0000000000000000e+00 0.0000000000000000e+00  -2.4978745081124311e-09 5.1922806714942617e-10 0.0000000000000000e+00  -2.4936690594330881e-09 -5.5215022220849071e-10 0.0000000000000000e+00  0.0000000000000000e+00 0.0000000000000000e+00 0.0000000000000000e+00  0.0000000000000000e+00 0.0000000000000000e+00 0.0000000000000000e+00  0.0000000000000000e+00 0.0000000000000000e+00 0.0000000000000000e+00  0.0000000000000000e+00 0.0000000000000000e+00 0.0000000000000000e+00  -2.4940891345141220e-09 -1.6276911502237267e-11 0.0000000000000000e+00  0.0000000000000000e+00 0.0000000000000000e+00 0.0000000000000000e+00  0.0000000000000000e+00 0.0000000000000000e+00 0.0000000000000000e+00  0.0000000000000000e+00 0.0000000000000000e+00 0.0000000000000000e+00  0.0000000000000000e+00 0.0000000000000000e+00 0.0000000000000000e+00  0.0000000000000000e+00 0.0000000000000000e+00 0.0000000000000000e+00  0.0000000000000000e+00 0.0000000000000000e+00 0.0000000000000000e+00  0.0000000000000000e+00 0.0000000000000000e+00 0.0000000000000000e+00  0.0000000000000000e+00 0.0000000000000000e+00 0.0000000000000000e+00  0.0000000000000000e+00 0.0000000000000000e+00 0.0000000000000000e+00  0.0000000000000000e+00 0.0000000000000000e+00 0.0000000000000000e+00  0.0000000000000000e+00 0.0000000000000000e+00 0.0000000000000000e+00  0.0000000000000000e+00 0.0000000000000000e+00 0.0000000000000000e+00  0.0000000000000000e+00 0.0000000000000000e+00 0.0000000000000000e+00  0.0000000000000000e+00 0.0000000000000000e+00 0.0000000000000000e+00  0.0000000000000000e+00 0.0000000000000000e+00 0.0000000000000000e+00  0.0000000000000000e+00 0.0000000000000000e+00 0.0000000000000000e+00  0.0000000000000000e+00 0.0000000000000000e+00 0.0000000000000000e+00  0.0000000000000000e+00 0.0000000000000000e+00 0.0000000000000000e+00  0.0000000000000000e+00 0.0000000000000000e+00 0.0000000000000000e+00  0.0000000000000000e+00 0.0000000000000000e+00 0.0000000000000000e+00  0.0000000000000000e+00 0.0000000000000000e+00 0.0000000000000000e+00  0.0000000000000000e+00 0.0000000000000000e+00 0.0000000000000000e+00  0.0000000000000000e+00 0.0000000000000000e+00 0.0000000000000000e+00  0.0000000000000000e+00 0.0000000000000000e+00 0.0000000000000000e+00  0.0000000000000000e+00 0.0000000000000000e+00 0.0000000000000000e+00  0.0000000000000000e+00 0.0000000000000000e+00 0.0000000000000000e+00  0.0000000000000000e+00 0.0000000000000000e+00 0.0000000000000000e+00  0.0000000000000000e+00 0.0000000000000000e+00 0.0000000000000000e+00  0.0000000000000000e+00 0.0000000000000000e+00 0.0000000000000000e+00  0.0000000000000000e+00 0.0000000000000000e+00 0.0000000000000000e+00  0.0000000000000000e+00 0.0000000000000000e+00 0.0000000000000000e+00  0.0000000000000000e+00 0.0000000000000000e+00 0.0000000000000000e+00  0.0000000000000000e+00 0.0000000000000000e+00 0.0000000000000000e+00  0.0000000000000000e+00 0.0000000000000000e+00 0.0000000000000000e+00  0.0000000000000000e+00 0.0000000000000000e+00 0.0000000000000000e+00  0.0000000000000000e+00 0.0000000000000000e+00 0.0000000000000000e+00  0.0000000000000000e+00 0.0000000000000000e+00 0.0000000000000000e+00  0.0000000000000000e+00 0.0000000000000000e+00 0.0000000000000000e+00  0.0000000000000000e+00 0.0000000000000000e+00 0.0000000000000000e+00  0.0000000000000000e+00 0.0000000000000000e+00 0.0000000000000000e+00  0.0000000000000000e+00 0.0000000000000000e+00 0.0000000000000000e+00  0.0000000000000000e+00 0.0000000000000000e+00 0.0000000000000000e+00  0.0000000000000000e+00 0.0000000000000000e+00 0.0000000000000000e+00  0.0000000000000000e+00 0.0000000000000000e+00 0.0000000000000000e+00  0.0000000000000000e+00 0.0000000000000000e+00 0.0000000000000000e+00  0.0000000000000000e+00 0.0000000000000000e+00 0.0000000000000000e+00  0.0000000000000000e+00 0.0000000000000000e+00 0.0000000000000000e+00  0.0000000000000000e+00 0.0000000000000000e+00 0.0000000000000000e+00  0.0000000000000000e+00 0.0000000000000000e+00 0.0000000000000000e+00  0.0000000000000000e+00 0.0000000000000000e+00 0.0000000000000000e+00  0.0000000000000000e+00 0.0000000000000000e+00 0.0000000000000000e+00  0.0000000000000000e+00 0.0000000000000000e+00 0.0000000000000000e+00  0.0000000000000000e+00 0.0000000000000000e+00 0.0000000000000000e+00  0.0000000000000000e+00 0.0000000000000000e+00 0.0000000000000000e+00  0.0000000000000000e+00 0.0000000000000000e+00 0.0000000000000000e+00  0.0000000000000000e+00 0.0000000000000000e+00 0.0000000000000000e+00  0.0000000000000000e+00 0.0000000000000000e+00 0.0000000000000000e+00  0.0000000000000000e+00 0.0000000000000000e+00 0.0000000000000000e+00  0.0000000000000000e+00 0.0000000000000000e+00 0.0000000000000000e+00  0.0000000000000000e+00 0.0000000000000000e+00 0.0000000000000000e+00  0.0000000000000000e+00 0.0000000000000000e+00 0.0000000000000000e+00  0.0000000000000000e+00 0.0000000000000000e+00 0.0000000000000000e+00  0.0000000000000000e+00 0.0000000000000000e+00 0.0000000000000000e+00  0.0000000000000000e+00 0.0000000000000000e+00 0.0000000000000000e+00  0.0000000000000000e+00 0.0000000000000000e+00 0.0000000000000000e+00  0.0000000000000000e+00 0.0000000000000000e+00 0.0000000000000000e+00  0.0000000000000000e+00 0.0000000000000000e+00 0.0000000000000000e+00  0.0000000000000000e+00 0.0000000000000000e+00 0.0000000000000000e+00  0.0000000000000000e+00 0.0000000000000000e+00 0.0000000000000000e+00  0.0000000000000000e+00 0.0000000000000000e+00 0.0000000000000000e+00  0.0000000000000000e+00 0.0000000000000000e+00 0.0000000000000000e+00  0.0000000000000000e+00 0.0000000000000000e+00 0.0000000000000000e+00  0.0000000000000000e+00 0.0000000000000000e+00 0.0000000000000000e+00  0.0000000000000000e+00 0.0000000000000000e+00 0.0000000000000000e+00  0.0000000000000000e+00 0.0000000000000000e+00 0.0000000000000000e+00  0.0000000000000000e+00 0.0000000000000000e+00 0.0000000000000000e+00  0.0000000000000000e+00 0.0000000000000000e+00 0.0000000000000000e+00  0.0000000000000000e+00 0.0000000000000000e+00 0.0000000000000000e+00  0.0000000000000000e+00 0.0000000000000000e+00 0.0000000000000000e+00  0.0000000000000000e+00 0.0000000000000000e+00 0.0000000000000000e+00  0.0000000000000000e+00 0.0000000000000000e+00 0.0000000000000000e+00  0.0000000000000000e+00 0.0000000000000000e+00 0.0000000000000000e+00  0.0000000000000000e+00 0.0000000000000000e+00 0.0000000000000000e+00  0.0000000000000000e+00 0.0000000000000000e+00 0.0000000000000000e+00  0.0000000000000000e+00 0.0000000000000000e+00 0.0000000000000000e+00  0.0000000000000000e+00 0.0000000000000000e+00 0.0000000000000000e+00  0.0000000000000000e+00 0.0000000000000000e+00 0.0000000000000000e+00  0.0000000000000000e+00 0.0000000000000000e+00 0.0000000000000000e+00  0.0000000000000000e+00 0.0000000000000000e+00 0.0000000000000000e+00  0.0000000000000000e+00 0.0000000000000000e+00 0.0000000000000000e+00  0.0000000000000000e+00 0.0000000000000000e+00 0.0000000000000000e+00  0.0000000000000000e+00 0.0000000000000000e+00 0.0000000000000000e+00  0.0000000000000000e+00 0.0000000000000000e+00 0.0000000000000000e+00  0.0000000000000000e+00 0.0000000000000000e+00 0.0000000000000000e+00  0.0000000000000000e+00 0.0000000000000000e+00 0.0000000000000000e+00  0.0000000000000000e+00 0.0000000000000000e+00 0.0000000000000000e+00  0.0000000000000000e+00 0.0000000000000000e+00 0.0000000000000000e+00  0.0000000000000000e+00 0.0000000000000000e+00 0.0000000000000000e+00  0.0000000000000000e+00 0.0000000000000000e+00 0.0000000000000000e+00  0.0000000000000000e+00 0.0000000000000000e+00 0.0000000000000000e+00  0.0000000000000000e+00 0.0000000000000000e+00 0.0000000000000000e+00  0.0000000000000000e+00 0.0000000000000000e+00 0.0000000000000000e+00  0.0000000000000000e+00 0.0000000000000000e+00 0.0000000000000000e+00  0.0000000000000000e+00 0.0000000000000000e+00 0.0000000000000000e+00  0.0000000000000000e+00 0.0000000000000000e+00 0.0000000000000000e+00  0.0000000000000000e+00 0.0000000000000000e+00 0.0000000000000000e+00  0.0000000000000000e+00 0.0000000000000000e+00 0.0000000000000000e+00  0.0000000000000000e+00 0.0000000000000000e+00 0.0000000000000000e+00  0.0000000000000000e+00 0.0000000000000000e+00 0.0000000000000000e+00  0.0000000000000000e+00 0.0000000000000000e+00 0.0000000000000000e+00  0.0000000000000000e+00 0.0000000000000000e+00 0.0000000000000000e+00  0.0000000000000000e+00 0.0000000000000000e+00 0.0000000000000000e+00  0.0000000000000000e+00 0.0000000000000000e+00 0.0000000000000000e+00  0.0000000000000000e+00 0.0000000000000000e+00 0.0000000000000000e+00  0.0000000000000000e+00 0.0000000000000000e+00 0.0000000000000000e+00  0.0000000000000000e+00 0.0000000000000000e+00 0.0000000000000000e+00  0.0000000000000000e+00 0.0000000000000000e+00 0.0000000000000000e+00  0.0000000000000000e+00 0.0000000000000000e+00 0.0000000000000000e+00  0.0000000000000000e+00 0.0000000000000000e+00 0.0000000000000000e+00  0.0000000000000000e+00 0.0000000000000000e+00 0.0000000000000000e+00  0.0000000000000000e+00 0.0000000000000000e+00 0.0000000000000000e+00  0.0000000000000000e+00 0.0000000000000000e+00 0.0000000000000000e+00  0.0000000000000000e+00 0.0000000000000000e+00 0.0000000000000000e+00  0.0000000000000000e+00 0.0000000000000000e+00 0.0000000000000000e+00  0.0000000000000000e+00 0.0000000000000000e+00 0.0000000000000000e+00  0.0000000000000000e+00 0.0000000000000000e+00 0.0000000000000000e+00  0.0000000000000000e+00 0.0000000000000000e+00 0.0000000000000000e+00  0.0000000000000000e+00 0.0000000000000000e+00 0.0000000000000000e+00  0.0000000000000000e+00 0.0000000000000000e+00 0.0000000000000000e+00  0.0000000000000000e+00 0.0000000000000000e+00 0.0000000000000000e+00  0.0000000000000000e+00 0.0000000000000000e+00 0.0000000000000000e+00  0.0000000000000000e+00 0.0000000000000000e+00 0.0000000000000000e+00  9.0970459014724639e-11 -1.0918228012178648e-09 0.0000000000000000e+00  4.5314396241085552e-11 -1.1297334367366488e-09 0.0000000000000000e+00  1.0853840135453967e-10 -1.1188881209905467e-09 0.0000000000000000e+00  1.8564042802580972e-10 -1.1075671828737791e-09 0.0000000000000000e+00  2.6273896538709603e-10 -1.1003561811526938e-09 0.0000000000000000e+00  3.3284065054441534e-10 -1.0913881839314904e-09 0.0000000000000000e+00  3.9747218100909010e-10 -1.0808589173330290e-09 0.0000000000000000e+00  4.5491618158628794e-10 -1.0694529248838973e-09 0.0000000000000000e+00  5.0660020039395723e-10 -1.0573372313824356e-09 0.0000000000000000e+00  5.5166648751798822e-10 -1.0466001073157037e-09 0.0000000000000000e+00  5.9032162917157945e-10 -1.0344546934435042e-09 0.0000000000000000e+00  6.2256165365708975e-10 -1.0243703267186954e-09 0.0000000000000000e+00  6.4831506776034909e-10 -1.0136002094406673e-09 0.0000000000000000e+00  6.6843713198018524e-10 -1.0036756079918001e-09 0.0000000000000000e+00  6.8202880432922169e-10 -9.9405501393464845e-10 0.0000000000000000e+00  6.9068488294450548e-10 -9.8468918433640493e-10 0.0000000000000000e+00  6.9399185522428577e-10 -9.7644725831171782e-10 0.0000000000000000e+00  6.9232155817461470e-10 -9.6720834119508931e-10 0.0000000000000000e+00  6.8598233155632572e-10 -9.5952720014653901e-10 0.0000000000000000e+00  6.7503446366901369e-10 -9.5072351421414372e-10 0.0000000000000000e+00  6.5981932713894058e-10 -9.4306013016265101e-10 0.0000000000000000e+00  6.4007310495679627e-10 -9.3471052065139978e-10 0.0000000000000000e+00  6.1655150894214209e-10 -9.2667310429571335e-10 0.0000000000000000e+00  5.8795058897663651e-10 -9.1840698888540066e-10 0.0000000000000000e+00  5.5536989530312981e-10 -9.1003797182201445e-10 0.0000000000000000e+00  5.1804071870839811e-10 -9.0186915860021363e-10 0.0000000000000000e+00  4.7586936532849668e-10 -8.9285354832777360e-10 0.0000000000000000e+00  4.2868174924025162e-10 -8.8420438177735469e-10 0.0000000000000000e+00  3.7575713346695578e-10 -8.7431911416684934e-10 0.0000000000000000e+00  3.1699921404189392e-10 -8.6502757721862363e-10 0.0000000000000000e+00  2.5156296372866438e-10 -8.5402839800774873e-10 0.0000000000000000e+00  1.7884436771560048e-10 -8.4364460635889266e-10 0.0000000000000000e+00  9.8513688120028664e-11 -8.3124331175663247e-10 0.0000000000000000e+00  9.1289440850148861e-12 -8.1886470098217591e-10 0.0000000000000000e+00  -9.0409716300126955e-11 -8.0465989608000944e-10 0.0000000000000000e+00  -2.0042869896424952e-10 -7.9108859222564672e-10 0.0000000000000000e+00  -3.2231107396517857e-10 -7.7489105230378344e-10 0.0000000000000000e+00  -4.5702384691349345e-10 -7.5898600056341934e-10 0.0000000000000000e+00  -6.0645676258537010e-10 -7.3952934311269531e-10 0.0000000000000000e+00  -7.7170026526139298e-10 -7.2076073352736267e-10 0.0000000000000000e+00  -9.5413546717201947e-10 -6.9913715632644416e-10 0.0000000000000000e+00  -1.1543736924113309e-09 -6.7589788929089934e-10 0.0000000000000000e+00  -1.3768983859165722e-09 -6.5198646910384745e-10 0.0000000000000000e+00  -1.6202876298841231e-09 -6.2584844034610627e-10 0.0000000000000000e+00  -1.8869040078038839e-09 -5.9926935375249279e-10 0.0000000000000000e+00  -2.1761888492575348e-09 -5.6665268595753763e-10 0.0000000000000000e+00  -2.4982988858444892e-09 -2.8804555308700008e-10 0.0000000000000000e+00  -2.4995921079544267e-09 2.5577609414207137e-10 0.0000000000000000e+00  -2.1792934896576013e-09 5.3665194082476696e-10 0.0000000000000000e+00  -1.8887151387771081e-09 5.7138161340982065e-10 0.0000000000000000e+00  -1.6210385746361911e-09 5.9891669336396765e-10 0.0000000000000000e+00  -1.3771474783753512e-09 6.2605714189247921e-10 0.0000000000000000e+00  -1.1542391234798067e-09 6.4993991543511661e-10 0.0000000000000000e+00  -9.5353349688233062e-10 6.7240476527145597e-10 0.0000000000000000e+00  -7.7077888629335334e-10 6.9359761683312466e-10 0.0000000000000000e+00  -6.0565783216808775e-10 7.1082216150300634e-10 0.0000000000000000e+00  -4.5611831623456951e-10 7.2995475906932136e-10 0.0000000000000000e+00  -3.2112231387557658e-10 7.4494656782277700e-10 0.0000000000000000e+00  -1.9936445633688167e-10 7.6173627384199072e-10 0.0000000000000000e+00  -8.9620769221836458e-11 7.7458471967480631e-10 0.0000000000000000e+00  9.4612769431881217e-12 7.8875385663292660e-10 0.0000000000000000e+00  9.8855689957738840e-11 7.9960371942833159e-10 0.0000000000000000e+00  1.7951800525581082e-10 8.1187593052049870e-10 0.0000000000000000e+00  2.5219779620933135e-10 8.2152760999051737e-10 0.0000000000000000e+00  3.1758643523340786e-10 8.3256805295763148e-10 0.0000000000000000e+00  3.7629000784262827e-10 8.4124445914275809e-10 0.0000000000000000e+00  4.2901482799204890e-10 8.5108784930059629e-10 0.0000000000000000e+00  4.7625418548317017e-10 8.5891825546468820e-10 0.0000000000000000e+00  5.1840249861774920e-10 8.6806658698163210e-10 0.0000000000000000e+00  5.5573503798540412e-10 8.7565659203680256e-10 0.0000000000000000e+00  5.8827052305048051e-10 8.8416809818888585e-10 0.0000000000000000e+00  6.1676373542708921e-10 8.9220858585762589e-10 0.0000000000000000e+00  6.4024540898770543e-10 9.0025636220847946e-10 0.0000000000000000e+00  6.5986010512640611e-10 9.0827324735855868e-10 0.0000000000000000e+00  6.7512954199171427e-10 9.1601730879280291e-10 0.0000000000000000e+00  6.8606080029827053e-10 9.2468354514568080e-10 0.0000000000000000e+00  6.9241690339142264e-10 9.3285725807006667e-10 0.0000000000000000e+00  6.9400392235036172e-10 9.4196559200950482e-10 0.0000000000000000e+00  6.9075665109027137e-10 9.5048988182261180e-10 0.0000000000000000e+00  6.8233246479178880e-10 9.5966962930487842e-10 0.0000000000000000e+00  6.6905702413553303e-10 9.6910615529842889e-10 0.0000000000000000e+00  6.4926424271068551e-10 9.7860408767534944e-10 0.0000000000000000e+00  6.2386279111987586e-10 9.8843332038923146e-10 0.0000000000000000e+00  5.9204570877985023e-10 9.9748146939186807e-10 0.0000000000000000e+00  5.5372290171492845e-10 1.0075591681851635e-09 0.0000000000000000e+00  5.0866591816684026e-10 1.0163962574762951e-09 0.0000000000000000e+00  4.5657467697295376e-10 1.0260734339821369e-09 0.0000000000000000e+00  3.9769835554860572e-10 1.0354927602030311e-09 0.0000000000000000e+00  3.3123269769959855e-10 1.0454618032311364e-09 0.0000000000000000e+00  2.5833463748594502e-10 1.0558219630930333e-09 0.0000000000000000e+00  1.7836786038857327e-10 1.0673873549160144e-09 0.0000000000000000e+00  9.9158590321637171e-11 1.0868934189593438e-09 0.0000000000000000e+00  3.5743608590721508e-11 1.1084126083803431e-09 0.0000000000000000e+00  8.0413612276952879e-11 1.0782149567859001e-09 0.0000000000000000e+00  -8.3702227232812483e-11 -1.6234753084146449e-11 0.0000000000000000e+00  -2.0235933375017330e-09 -2.1173939418227997e-11 0.0000000000000000e+00  -1.5094391019159739e-09 -2.5827971484664151e-11 0.0000000000000000e+00  -8.4744718629388644e-10 -2.1130010687077076e-11 0.0000000000000000e+00  1.4181225729576867e-10 -1.8439343220558620e-11 0.0000000000000000e+00  -5.2357775754533483e-10 -1.4387091352527828e-11 0.0000000000000000e+00  2.9367984119871744e-10 -9.2036390075765947e-12 0.0000000000000000e+00  -2.5409376393760305e-10 -1.4838878048641108e-11 0.0000000000000000e+00  4.8766368268985528e-10 -7.1238100282038072e-12 0.0000000000000000e+00  5.7601397601045073e-10 -1.8920047234696953e-11 0.0000000000000000e+00  -3.4569523650602722e-11 -1.5122745286940453e-11 0.0000000000000000e+00  6.9052425456668934e-10 -4.0177828242035324e-12 0.0000000000000000e+00  2.8903003063242860e-10 -1.6234531037405027e-11 0.0000000000000000e+00  6.3771948107597587e-10 -4.6233186465747402e-12 0.0000000000000000e+00  6.9683192709427434e-10 -1.7201059165713729e-11 0.0000000000000000e+00  4.0649403358777769e-10 -1.6559621389237753e-11 0.0000000000000000e+00  1.4398892960998458e-10 -1.5790220084576729e-11 0.0000000000000000e+00  6.8411265507300310e-10 -1.7402652264760686e-11 0.0000000000000000e+00  5.0090379343049856e-10 -1.6919454199289035e-11 0.0000000000000000e+00  6.5500026614363877e-10 -5.2870305242890385e-12 0.0000000000000000e+00  5.7395786161406805e-10 -2.8612958567412419e-11 0.0000000000000000e+00  6.2148166683304928e-10 -1.6909923506170784e-11 0.0000000000000000e+00  6.7009168285367649e-10 -1.9046852459545579e-11 0.0000000000000000e+00  -1.1667122240484800e-09 -1.1682493565548406e-11 0.0000000000000000e+00  3.9487355755234273e-10 -2.2704066217222858e-11 0.0000000000000000e+00  -1.7533982079680150e-09 1.8638602252538401e-10 0.0000000000000000e+00  4.7979568883414866e-11 3.9366372766468646e-10 0.0000000000000000e+00  -3.8228618366575720e-10 2.0413898409279021e-10 0.0000000000000000e+00  -6.8080109696533562e-10 1.9437685533053967e-10 0.0000000000000000e+00  2.2510576497323067e-10 -4.0609277206064590e-10 0.0000000000000000e+00  5.3367537134288897e-10 -3.2000699198564804e-10 0.0000000000000000e+00  2.2006651243426238e-10 2.2616366946484272e-10 0.0000000000000000e+00  -1.3898091098133900e-10 2.1285526252786173e-10 0.0000000000000000e+00  6.9583358737080780e-10 -2.9723298853639329e-10 0.0000000000000000e+00  3.5070983513141254e-10 2.3175895219960863e-10 0.0000000000000000e+00  6.1072180625657267e-10 -3.1204510457183269e-10 0.0000000000000000e+00  6.9254549413822653e-10 -2.9232487872338332e-10 0.0000000000000000e+00  4.5615814040566327e-10 2.3675885461143194e-10 0.0000000000000000e+00  5.9037567490784308e-11 2.2005727633278424e-10 0.0000000000000000e+00  6.7080975705558841e-10 -3.4707023697595978e-10 0.0000000000000000e+00  5.4032453487360162e-10 2.4146558622021876e-10 0.0000000000000000e+00  -1.7658539115093140e-10 -3.0893478124181382e-10 0.0000000000000000e+00  -1.7799538973095958e-10 2.8939654635222101e-10 0.0000000000000000e+00  -2.2652029655591107e-09 -1.4743585897034033e-10 0.0000000000000000e+00  5.2185439484503647e-11 -4.6891910868329590e-10 0.0000000000000000e+00  5.9891114865272142e-1