<?xml version="1.0"?>
<VTKFile type="UnstructuredGrid"  version="0.1"  >
<UnstructuredGrid>
<Piece  NumberOfPoints="1419" NumberOfCells="2698">
<Points>
<DataArray  type="Float64"  NumberOfComponents="3"  format="ascii">0 0 0  0 0.41 0  2.5 0 0  2.5 0.41 0  0.5999999998007463 0.1900000000899714 0  0.5999999998010631 0.2099999999048439 0  0.25 0.2 0  0.15 0.2 0  0.2489897948556636 0.21 0  0.2489897948556636 0.19 0  0.5999999998037751 0.1999999999975077 0  0 0.3807142857143437 0  0 0.3514285714286952 0  0 0.3221428571430699 0  0 0.29285714285744 0  0 0.2635714285718054 0  0 0.2342857142861561 0  0 0.2050000000005308 0  0 0.175714285714732 0  0 0.1464285714289574 0  0 0.1171428571431897 0  0 0.08785714285737878 0  0 0.05857142857161107 0  0 0.02928571428580012 0  0.03015443760436003 0 0  0.06140001986583606 0 0  0.09377624077125973 0 0  0.1273239957535082 0 0  0.1620856860351972 0 0  0.1981052433264291 0 0  0.235428184091502 0 0  0.2741016576309132 0 0  0.3141745521465447 0 0  0.3556974926295285 0 0  0.3987229542472677 0 0  0.4433053055141081 0 0  0.4895008759286886 0 0  0.5373680609405097 0 0  0.5869673343216626 0 0  0.6383613676634521 0 0  0.6916151138468254 0 0  0.7467958595648856 0 0  0.8039733463919316 0 0  0.8632198139502143 0 0  0.9246101326867038 0 0  0.9882218810934433 0 0  1.054135445558498 0 0  1.122434100542598 0 0  1.193204177141305 0 0  1.266535089879536 0 0  1.342519516046404 0 0  1.421253448503939 0 0  1.502836389106271 0 0  1.587371439758838 0 0  1.674965418777374 0 0  1.765729001825544 0 0  1.859776908880082 0 0  1.957227977487062 0 0  2.058205329869943 0 0  2.162836591189951 0 0  2.271253957290865 0 0  2.383594446803425 0 0  2.5 0.1024999999997612 0  2.5 0.2049999999994743 0  2.5 0.3074999999997183 0  2.383594446803656 0.41 0  2.271253957291315 0.41 0  2.162836591190598 0.41 0  2.058205329870775 0.41 0  1.957227977488067 0.41 0  1.859776908881246 0.41 0  1.765729001826854 0.41 0  1.674965418778818 0.41 0  1.58737143976041 0.41 0  1.502836389107956 0.41 0  1.421253448505726 0.41 0  1.342519516048286 0.41 0  1.266535089881505 0.41 0  1.193204177143353 0.41 0  1.122434100544716 0.41 0  1.05413544556068 0.41 0  0.9882218810956305 0.41 0  0.9246101326886647 0.41 0  0.8632198139519631 0.41 0  0.8039733463934788 0.41 0  0.7467958595662458 0.41 0  0.6916151138480078 0.41 0  0.6383613676644679 0.41 0  0.5869673343225223 0.41 0  0.5373680609412221 0.41 0  0.4895008759292634 0.41 0  0.4433053055145528 0.41 0  0.3987229542475914 0.41 0  0.3556974926297398 0.41 0  0.3141745521466497 0.41 0  0.2741016576310038 0.41 0  0.2354281840915826 0.41 0  0.1981052433265003 0.41 0  0.1620856860352591 0.41 0  0.1273239957535623 0.41 0  0.09377624077128965 0.41 0  0.06140001986584975 0.41 0  0.03015443760436654 0.41 0  0.2497468076502589 0.2050254481002335 0  0.2497468076502614 0.1949745518997913 0  0.2469965252529372 0.1829317073451959 0  0.2439893735792749 0.1762316384219906 0  0.2400332147834255 0.1700443375285386 0  0.2352133972704371 0.1645032867342007 0  0.2296339016332438 0.1597280261969788 0  0.2234150974217223 0.1558215752574715 0  0.2166911463437691 0.1528682099456123 0  0.2096071079204251 0.1509316448471593 0  0.2023158100364996 0.1500536585536553 0  0.194974551899914 0.1502531923497262 0  0.1877417105387872 0.1515259415822739 0  0.1807733240461124 0.153844448527136 0  0.1742197252835808 0.15715869474974 0  0.1682222986673531 0.1613971801805478 0  0.162910430003803 0.1664684656256651 0  0.1583987151779087 0.1722631454351573 0  0.1547844879126891 0.178656207771761 0  0.1521457199348551 0.1855097315605723 0  0.1505393388476355 0.1926758619366523 0  0.1505393388476328 0.2073241380633295 0  0.1521457199348437 0.2144902684393899 0  0.1547844879126531 0.221343792228163 0  0.1583987151778488 0.2277368545647528 0  0.1629104300036858 0.2335315343742052 0  0.1682222986671726 0.2386028198193036 0  0.1742197252833576 0.2428413052501257 0  0.1807733240458683 0.2461555514727623 0  0.1877417105384929 0.2484740584176516 0  0.1949745518995776 0.2497468076502398 0  0.202315810036185 0.2499463414463592 0  0.2096071079201568 0.2490683551528932 0  0.2166911463435495 0.2471317900544655 0  0.2234150974215506 0.2441784247426195 0  0.2296339016331197 0.2402719738031125 0  0.2352133972703547 0.2354967132658811 0  0.2400332147833751 0.2299556624715287 0  0.2439893735792577 0.2237683615780412 0  0.246996525252926 0.2170682926548348 0  0.2564580971377328 0.2099999995929463 0  0.2639263993627028 0.2099999996016629 0  0.2713947016217276 0.2099999996223204 0  0.2788630038801585 0.2099999996420698 0  0.2863313061343956 0.209999999656766 0  0.2937996083835305 0.2099999996709425 0  0.3012679106295537 0.2099999996847058 0  0.3087362128710696 0.2099999996962975 0  0.3162045151110497 0.2099999997079657 0  0.3236728173488896 0.2099999997173575 0  0.3311411195854774 0.2099999997277436 0  0.3386094218209443 0.2099999997360981 0  0.3460777240553841 0.2099999997447568 0  0.3535460262897787 0.2099999997531951 0  0.3610143285229218 0.2099999997604668 0  0.3684826307564116 0.2099999997679721 0  0.375950932989518 0.2099999997743346 0  0.3834192352225724 0.2099999997813404 0  0.3908875374555826 0.2099999997870448 0  0.3983558396885922 0.2099999997933168 0  0.4058241419216884 0.2099999997986385 0  0.4132924441547238 0.2099999998040719 0  0.4207607463881943 0.2099999998095072 0  0.428229048621216 0.2099999998141175 0  0.4356973508546413 0.2099999998188769 0  0.4431656530880406 0.2099999998231555 0  0.4506339553214984 0.2099999998275421 0  0.4581022575550002 0.2099999998313902 0  0.4655705597884754 0.2099999998353898 0  0.4730388620219114 0.2099999998388013 0  0.4805071642552923 0.2099999998424343 0  0.4879754664884339 0.2099999998455074 0  0.4954437687214876 0.209999999848759 0  0.5029120709541954 0.2099999998516618 0  0.5103803731863535 0.2099999998546679 0  0.5178486754179221 0.2099999998572703 0  0.5253169776487061 0.2099999998600874 0  0.532785279878515 0.2099999998626304 0  0.5402535821069046 0.209999999865591 0  0.5477218843334577 0.2099999998683594 0  0.5551901865576927 0.2099999998715307 0  0.5626584887791215 0.2099999998753834 0  0.5701267909963783 0.2099999998791263 0  0.57759509320888 0.2099999998840573 0  0.585063395415259 0.2099999998897126 0  0.592531697613789 0.2099999998978942 0  0.5999999998020822 0.204999999950634 0  0.5999999998021049 0.1950000000444915 0  0.5925316976136726 0.1900000000970582 0  0.5850633954154391 0.1900000001053903 0  0.5775950932092528 0.1900000001109363 0  0.5701267909967054 0.1900000001158342 0  0.5626584887794969 0.1900000001194099 0  0.5551901865580736 0.1900000001230188 0  0.5477218843339092 0.1900000001260339 0  0.5402535821073484 0.1900000001285451 0  0.5327852798790741 0.1900000001314163 0  0.5253169776493439 0.1900000001337929 0  0.5178486754185729 0.1900000001366636 0  0.510380373187002 0.1900000001390736 0  0.5029120709548115 0.1900000001420588 0  0.4954437687221985 0.1900000001446311 0  0.4879754664892492 0.1900000001478887 0  0.4805071642561243 0.1900000001507685 0  0.4730388620227803 0.1900000001544227 0  0.465570559789393 0.1900000001576239 0  0.4581022575559112 0.1900000001616508 0  0.4506339553224945 0.1900000001651795 0  0.4431656530890702 0.1900000001696435 0  0.4356973508557515 0.1900000001736324 0  0.428229048622315 0.1900000001785271 0  0.4207607463892686 0.1900000001830314 0  0.4132924441557492 0.1900000001884598 0  0.4058241419226244 0.1900000001937065 0  0.3983558396895524 0.1900000001990371 0  0.3908875374565047 0.1900000002051793 0  0.3834192352234567 0.1900000002111053 0  0.375950932990277 0.1900000002178793 0  0.3684826307570636 0.1900000002243758 0  0.361014328523621 0.1900000002316349 0  0.3535460262904646 0.1900000002388582 0  0.346077724056037 0.1900000002472459 0  0.3386094218214513 0.1900000002558025 0  0.331141119585966 0.190000000264268 0  0.3236728173494098 0.1900000002742668 0  0.3162045151115535 0.190000000283788 0  0.3087362128717659 0.190000000294951 0  0.301267910630247 0.1900000003061281 0  0.2937996083842153 0.1900000003192825 0  0.2863313061347183 0.1900000003327214 0  0.2788630038798794 0.1900000003468574 0  0.2713947016206881 0.1900000003666939 0  0.2639263993607329 0.1900000003885613 0  0.2564580971339927 0.1900000003992506 0  0.2607803159846236 0.2000727136224506 0  0.5887803772965767 0.2001272386947719 0  0.5745072403068804 0.2002044434971034 0  0.5511891429989041 0.2001122610036376 0  0.2751288527577108 0.1999999999945407 0  0.5365194309944346 0.1999999999971118 0  0.289462122405263 0.1998691686382436 0  0.5215828265351282 0.1999999999969936 0  0.3127789817924265 0.1998657885436765 0  0.3274069684717922 0.1999999999960299 0  0.5066462220721865 0.1999999999968839 0  0.3650630747697927 0.1998660178068144 0  0.4767730131409817 0.1999999999966143 0  0.3417402380827438 0.1998691686383922 0  0.3796850841091907 0.1999999999963288 0  0.4618364086743839 0.1999999999965033 0  0.4917096176071253 0.1999999999967196 0  0.3946216885749803 0.19999999999634 0  0.4468998042077049 0.1999999999963647 0  0.4089549581815703 0.199869168637976 0  0.4322718175364348 0.2001274512598697 0  0.420148716885177 0.1999966199012908 0  0.3528922714409267 0.200018570348916 0  0.5633122436318967 0.1999814296444394 0  0.3006558811286201 0.1999966199004276 0  0.5815926497234004 0.1966545283501829 0  0.267705378984468 0.196424648047494 0  0.5290511287653457 0.1970915827225146 0  0.5439877332218632 0.1970915827210836 0  0.2825131257910711 0.2035478994708758 0  0.3199386662346785 0.202908417228005 0  0.484241315374098 0.1970915827270745 0  0.5141145243039678 0.1970915827239452 0  0.3722167818761054 0.202908417245045 0  0.4693047109076595 0.1970915827289237 0  0.3348752707072735 0.2029084172336696 0  0.3871533863419574 0.202908417248855 0  0.4543681064409775 0.1970915827309801 0  0.4991779198398006 0.1970915827254404 0  0.4020059615845115 0.2035478995237301 0  0.4394315019743467 0.1970915827332829 0  0.2550657454844306 0.2034088124191693 0  0.2548908498639045 0.1966940312687627 0  0.5946539508589203 0.2024302
[...]
<PointData  Vectors="f_44-1"> 
<DataArray  type="Float64"  Name="f_44-1"  NumberOfComponents="3" format="ascii">0.0000000000000000e+00 0.0000000000000000e+00 0.0000000000000000e+00  0.0000000000000000e+00 0.0000000000000000e+00 0.0000000000000000e+00  0.0000000000000000e+00 0.0000000000000000e+00 0.0000000000000000e+00  0.0000000000000000e+00 0.0000000000000000e+00 0.0000000000000000e+00  -2.9392222726735799e-10 1.2128804549082530e-10 0.0000000000000000e+00  -2.9344551197526606e-10 -1.2831268019666210e-10 0.0000000000000000e+00  0.0000000000000000e+00 0.0000000000000000e+00 0.0000000000000000e+00  0.0000000000000000e+00 0.0000000000000000e+00 0.0000000000000000e+00  0.0000000000000000e+00 0.0000000000000000e+00 0.0000000000000000e+00  0.0000000000000000e+00 0.0000000000000000e+00 0.0000000000000000e+00  -2.9005919716784136e-10 -3.3882889989595923e-12 0.0000000000000000e+00  0.0000000000000000e+00 0.0000000000000000e+00 0.0000000000000000e+00  0.0000000000000000e+00 0.0000000000000000e+00 0.0000000000000000e+00  0.0000000000000000e+00 0.0000000000000000e+00 0.0000000000000000e+00  0.0000000000000000e+00 0.0000000000000000e+00 0.0000000000000000e+00  0.0000000000000000e+00 0.0000000000000000e+00 0.0000000000000000e+00  0.0000000000000000e+00 0.0000000000000000e+00 0.0000000000000000e+00  0.0000000000000000e+00 0.0000000000000000e+00 0.0000000000000000e+00  0.0000000000000000e+00 0.0000000000000000e+00 0.0000000000000000e+00  0.0000000000000000e+00 0.0000000000000000e+00 0.0000000000000000e+00  0.0000000000000000e+00 0.0000000000000000e+00 0.0000000000000000e+00  0.0000000000000000e+00 0.0000000000000000e+00 0.0000000000000000e+00  0.0000000000000000e+00 0.0000000000000000e+00 0.0000000000000000e+00  0.0000000000000000e+00 0.0000000000000000e+00 0.0000000000000000e+00  0.0000000000000000e+00 0.0000000000000000e+00 0.0000000000000000e+00  0.0000000000000000e+00 0.0000000000000000e+00 0.0000000000000000e+00  0.0000000000000000e+00 0.0000000000000000e+00 0.0000000000000000e+00  0.0000000000000000e+00 0.0000000000000000e+00 0.0000000000000000e+00  0.0000000000000000e+00 0.0000000000000000e+00 0.0000000000000000e+00  0.0000000000000000e+00 0.0000000000000000e+00 0.0000000000000000e+00  0.0000000000000000e+00 0.0000000000000000e+00 0.0000000000000000e+00  0.0000000000000000e+00 0.0000000000000000e+00 0.0000000000000000e+00  0.0000000000000000e+00 0.0000000000000000e+00 0.0000000000000000e+00  0.0000000000000000e+00 0.0000000000000000e+00 0.0000000000000000e+00  0.0000000000000000e+00 0.0000000000000000e+00 0.0000000000000000e+00  0.0000000000000000e+00 0.0000000000000000e+00 0.0000000000000000e+00  0.0000000000000000e+00 0.0000000000000000e+00 0.0000000000000000e+00  0.0000000000000000e+00 0.0000000000000000e+00 0.0000000000000000e+00  0.0000000000000000e+00 0.0000000000000000e+00 0.0000000000000000e+00  0.0000000000000000e+00 0.0000000000000000e+00 0.0000000000000000e+00  0.0000000000000000e+00 0.0000000000000000e+00 0.0000000000000000e+00  0.0000000000000000e+00 0.0000000000000000e+00 0.0000000000000000e+00  0.0000000000000000e+00 0.0000000000000000e+00 0.0000000000000000e+00  0.0000000000000000e+00 0.0000000000000000e+00 0.0000000000000000e+00  0.0000000000000000e+00 0.0000000000000000e+00 0.0000000000000000e+00  0.0000000000000000e+00 0.0000000000000000e+00 0.0000000000000000e+00  0.0000000000000000e+00 0.0000000000000000e+00 0.0000000000000000e+00  0.0000000000000000e+00 0.0000000000000000e+00 0.0000000000000000e+00  0.0000000000000000e+00 0.0000000000000000e+00 0.0000000000000000e+00  0.0000000000000000e+00 0.0000000000000000e+00 0.0000000000000000e+00  0.0000000000000000e+00 0.0000000000000000e+00 0.0000000000000000e+00  0.0000000000000000e+00 0.0000000000000000e+00 0.0000000000000000e+00  0.0000000000000000e+00 0.0000000000000000e+00 0.0000000000000000e+00  0.0000000000000000e+00 0.0000000000000000e+00 0.0000000000000000e+00  0.0000000000000000e+00 0.0000000000000000e+00 0.0000000000000000e+00  0.0000000000000000e+00 0.0000000000000000e+00 0.0000000000000000e+00  0.0000000000000000e+00 0.0000000000000000e+00 0.0000000000000000e+00  0.0000000000000000e+00 0.0000000000000000e+00 0.0000000000000000e+00  0.0000000000000000e+00 0.0000000000000000e+00 0.0000000000000000e+00  0.0000000000000000e+00 0.0000000000000000e+00 0.0000000000000000e+00  0.0000000000000000e+00 0.0000000000000000e+00 0.0000000000000000e+00  0.0000000000000000e+00 0.0000000000000000e+00 0.0000000000000000e+00  0.0000000000000000e+00 0.0000000000000000e+00 0.0000000000000000e+00  0.0000000000000000e+00 0.0000000000000000e+00 0.0000000000000000e+00  0.0000000000000000e+00 0.0000000000000000e+00 0.0000000000000000e+00  0.0000000000000000e+00 0.0000000000000000e+00 0.0000000000000000e+00  0.0000000000000000e+00 0.0000000000000000e+00 0.0000000000000000e+00  0.0000000000000000e+00 0.0000000000000000e+00 0.0000000000000000e+00  0.0000000000000000e+00 0.0000000000000000e+00 0.0000000000000000e+00  0.0000000000000000e+00 0.0000000000000000e+00 0.0000000000000000e+00  0.0000000000000000e+00 0.0000000000000000e+00 0.0000000000000000e+00  0.0000000000000000e+00 0.0000000000000000e+00 0.0000000000000000e+00  0.0000000000000000e+00 0.0000000000000000e+00 0.0000000000000000e+00  0.0000000000000000e+00 0.0000000000000000e+00 0.0000000000000000e+00  0.0000000000000000e+00 0.0000000000000000e+00 0.0000000000000000e+00  0.0000000000000000e+00 0.0000000000000000e+00 0.0000000000000000e+00  0.0000000000000000e+00 0.0000000000000000e+00 0.0000000000000000e+00  0.0000000000000000e+00 0.0000000000000000e+00 0.0000000000000000e+00  0.0000000000000000e+00 0.0000000000000000e+00 0.0000000000000000e+00  0.0000000000000000e+00 0.0000000000000000e+00 0.0000000000000000e+00  0.0000000000000000e+00 0.0000000000000000e+00 0.0000000000000000e+00  0.0000000000000000e+00 0.0000000000000000e+00 0.0000000000000000e+00  0.0000000000000000e+00 0.0000000000000000e+00 0.0000000000000000e+00  0.0000000000000000e+00 0.0000000000000000e+00 0.0000000000000000e+00  0.0000000000000000e+00 0.0000000000000000e+00 0.0000000000000000e+00  0.0000000000000000e+00 0.0000000000000000e+00 0.0000000000000000e+00  0.0000000000000000e+00 0.0000000000000000e+00 0.0000000000000000e+00  0.0000000000000000e+00 0.0000000000000000e+00 0.0000000000000000e+00  0.0000000000000000e+00 0.0000000000000000e+00 0.0000000000000000e+00  0.0000000000000000e+00 0.0000000000000000e+00 0.0000000000000000e+00  0.0000000000000000e+00 0.0000000000000000e+00 0.0000000000000000e+00  0.0000000000000000e+00 0.0000000000000000e+00 0.0000000000000000e+00  0.0000000000000000e+00 0.0000000000000000e+00 0.0000000000000000e+00  0.0000000000000000e+00 0.0000000000000000e+00 0.0000000000000000e+00  0.0000000000000000e+00 0.0000000000000000e+00 0.0000000000000000e+00  0.0000000000000000e+00 0.0000000000000000e+00 0.0000000000000000e+00  0.0000000000000000e+00 0.0000000000000000e+00 0.0000000000000000e+00  0.0000000000000000e+00 0.0000000000000000e+00 0.0000000000000000e+00  0.0000000000000000e+00 0.0000000000000000e+00 0.0000000000000000e+00  0.0000000000000000e+00 0.0000000000000000e+00 0.0000000000000000e+00  0.0000000000000000e+00 0.0000000000000000e+00 0.0000000000000000e+00  0.0000000000000000e+00 0.0000000000000000e+00 0.0000000000000000e+00  0.0000000000000000e+00 0.0000000000000000e+00 0.0000000000000000e+00  0.0000000000000000e+00 0.0000000000000000e+00 0.0000000000000000e+00  0.0000000000000000e+00 0.0000000000000000e+00 0.0000000000000000e+00  0.0000000000000000e+00 0.0000000000000000e+00 0.0000000000000000e+00  0.0000000000000000e+00 0.0000000000000000e+00 0.0000000000000000e+00  0.0000000000000000e+00 0.0000000000000000e+00 0.0000000000000000e+00  0.0000000000000000e+00 0.0000000000000000e+00 0.0000000000000000e+00  0.0000000000000000e+00 0.0000000000000000e+00 0.0000000000000000e+00  0.0000000000000000e+00 0.0000000000000000e+00 0.0000000000000000e+00  0.0000000000000000e+00 0.0000000000000000e+00 0.0000000000000000e+00  0.0000000000000000e+00 0.0000000000000000e+00 0.0000000000000000e+00  0.0000000000000000e+00 0.0000000000000000e+00 0.0000000000000000e+00  0.0000000000000000e+00 0.0000000000000000e+00 0.0000000000000000e+00  0.0000000000000000e+00 0.0000000000000000e+00 0.0000000000000000e+00  0.0000000000000000e+00 0.0000000000000000e+00 0.0000000000000000e+00  0.0000000000000000e+00 0.0000000000000000e+00 0.0000000000000000e+00  0.0000000000000000e+00 0.0000000000000000e+00 0.0000000000000000e+00  0.0000000000000000e+00 0.0000000000000000e+00 0.0000000000000000e+00  0.0000000000000000e+00 0.0000000000000000e+00 0.0000000000000000e+00  0.0000000000000000e+00 0.0000000000000000e+00 0.0000000000000000e+00  0.0000000000000000e+00 0.0000000000000000e+00 0.0000000000000000e+00  0.0000000000000000e+00 0.0000000000000000e+00 0.0000000000000000e+00  0.0000000000000000e+00 0.0000000000000000e+00 0.0000000000000000e+00  0.0000000000000000e+00 0.0000000000000000e+00 0.0000000000000000e+00  0.0000000000000000e+00 0.0000000000000000e+00 0.0000000000000000e+00  0.0000000000000000e+00 0.0000000000000000e+00 0.0000000000000000e+00  0.0000000000000000e+00 0.0000000000000000e+00 0.0000000000000000e+00  0.0000000000000000e+00 0.0000000000000000e+00 0.0000000000000000e+00  0.0000000000000000e+00 0.0000000000000000e+00 0.0000000000000000e+00  0.0000000000000000e+00 0.0000000000000000e+00 0.0000000000000000e+00  0.0000000000000000e+00 0.0000000000000000e+00 0.0000000000000000e+00  0.0000000000000000e+00 0.0000000000000000e+00 0.0000000000000000e+00  0.0000000000000000e+00 0.0000000000000000e+00 0.0000000000000000e+00  0.0000000000000000e+00 0.0000000000000000e+00 0.0000000000000000e+00  0.0000000000000000e+00 0.0000000000000000e+00 0.0000000000000000e+00  0.0000000000000000e+00 0.0000000000000000e+00 0.0000000000000000e+00  0.0000000000000000e+00 0.0000000000000000e+00 0.0000000000000000e+00  0.0000000000000000e+00 0.0000000000000000e+00 0.0000000000000000e+00  0.0000000000000000e+00 0.0000000000000000e+00 0.0000000000000000e+00  0.0000000000000000e+00 0.0000000000000000e+00 0.0000000000000000e+00  0.0000000000000000e+00 0.0000000000000000e+00 0.0000000000000000e+00  5.6625278707667700e-11 -5.1825770552995636e-10 0.0000000000000000e+00  4.1063675166543789e-11 -5.0912567165633108e-10 0.0000000000000000e+00  6.9337146748722813e-11 -4.8404123216136412e-10 0.0000000000000000e+00  9.7248133022359456e-11 -4.5994235243166444e-10 0.0000000000000000e+00  1.2006634999521970e-10 -4.4200438427215997e-10 0.0000000000000000e+00  1.3648926481895712e-10 -4.2462626986995029e-10 0.0000000000000000e+00  1.4895741026854957e-10 -4.0772857523240767e-10 0.0000000000000000e+00  1.5573721698270635e-10 -3.9340014654941670e-10 0.0000000000000000e+00  1.6046603546192829e-10 -3.7899060937221823e-10 0.0000000000000000e+00  1.6242805865025444e-10 -3.6736365946545229e-10 0.0000000000000000e+00  1.6265957092207106e-10 -3.5450314498051691e-10 0.0000000000000000e+00  1.6137721524153001e-10 -3.4415135824405480e-10 0.0000000000000000e+00  1.5865652684827309e-10 -3.3341124461570905e-10 0.0000000000000000e+00  1.5573421096329176e-10 -3.2297159818113614e-10 0.0000000000000000e+00  1.5115797381534628e-10 -3.1393033737082243e-10 0.0000000000000000e+00  1.4685946753122682e-10 -3.0462517404534669e-10 0.0000000000000000e+00  1.4203249979924985e-10 -2.9672763629197110e-10 0.0000000000000000e+00  1.3698414773743937e-10 -2.8802615799587351e-10 0.0000000000000000e+00  1.3182547714234824e-10 -2.8093796090876076e-10 0.0000000000000000e+00  1.2652877315520008e-10 -2.7313439358780795e-10 0.0000000000000000e+00  1.2129303303264914e-10 -2.6650975425308707e-10 0.0000000000000000e+00  1.1586724493584502e-10 -2.5973224064012912e-10 0.0000000000000000e+00  1.1092073081433769e-10 -2.5296594097377761e-10 0.0000000000000000e+00  1.0530393274931086e-10 -2.4718366253636208e-10 0.0000000000000000e+00  1.0007713398764569e-10 -2.4122477250590254e-10 0.0000000000000000e+00  9.4752209913374007e-11 -2.3585426994876124e-10 0.0000000000000000e+00  8.9380754422010050e-11 -2.3033261678935135e-10 0.0000000000000000e+00  8.4009946263134667e-11 -2.2547409367251826e-10 0.0000000000000000e+00  7.8456813267042551e-11 -2.2040448826418336e-10 0.0000000000000000e+00  7.2796324498507861e-11 -2.1606151729595446e-10 0.0000000000000000e+00  6.6898191696536113e-11 -2.1141410056925121e-10 0.0000000000000000e+00  6.0633564257654964e-11 -2.0745860156151071e-10 0.0000000000000000e+00  5.4058399172509394e-11 -2.0324208554311673e-10 0.0000000000000000e+00  4.6847023786739176e-11 -1.9944922785718449e-10 0.0000000000000000e+00  3.8794786920881751e-11 -1.9548851709105357e-10 0.0000000000000000e+00  2.9844890225551050e-11 -1.9202910229683575e-10 0.0000000000000000e+00  1.9688938030571593e-11 -1.8824747204070510e-10 0.0000000000000000e+00  8.0295551330968861e-12 -1.8479986762051443e-10 0.0000000000000000e+00  -5.6901035982437916e-12 -1.8075778749665889e-10 0.0000000000000000e+00  -2.1977269597450864e-11 -1.7695693594679615e-10 0.0000000000000000e+00  -4.1462694989047964e-11 -1.7258879581763182e-10 0.0000000000000000e+00  -6.4808221347477632e-11 -1.6734518596188623e-10 0.0000000000000000e+00  -9.3794286796482647e-11 -1.6220017547894714e-10 0.0000000000000000e+00  -1.2904580191264691e-10 -1.5554647049002977e-10 0.0000000000000000e+00  -1.7228946230075446e-10 -1.4798913022213666e-10 0.0000000000000000e+00  -2.2565380330282779e-10 -1.3719937758840539e-10 0.0000000000000000e+00  -2.9224515542726249e-10 -6.6614669787979402e-11 0.0000000000000000e+00  -2.9224467634515223e-10 5.9948631555627533e-11 0.0000000000000000e+00  -2.2590859329925164e-10 1.3040159429928169e-10 0.0000000000000000e+00  -1.7218815162663225e-10 1.4141638122336388e-10 0.0000000000000000e+00  -1.2875071320051860e-10 1.4885612049046982e-10 0.0000000000000000e+00  -9.3543315970519201e-11 1.5548915480802196e-10 0.0000000000000000e+00  -6.4595144950489955e-11 1.6042687854124808e-10 0.0000000000000000e+00  -4.1240692086884082e-11 1.6535402867070583e-10 0.0000000000000000e+00  -2.1732273589934743e-11 1.6952221938562428e-10 0.0000000000000000e+00  -5.5012863760028505e-12 1.7297475713211524e-10 0.0000000000000000e+00  8.2512505419931860e-12 1.7690134506755726e-10 0.0000000000000000e+00  1.9989307020787531e-11 1.8012665042625516e-10 0.0000000000000000e+00  3.0109302550697914e-11 1.8398695506900083e-10 0.0000000000000000e+00  3.8998574332741627e-11 1.8719661376580765e-10 0.0000000000000000e+00  4.6929997214062553e-11 1.9113059956844731e-10 0.0000000000000000e+00  5.4158843989806248e-11 1.9448941586798173e-10 0.0000000000000000e+00  6.0822840512545006e-11 1.9870958381950076e-10 0.0000000000000000e+00  6.7086538055669348e-11 2.0241444386147486e-10 0.0000000000000000e+00  7.2982100417486676e-11 2.0708838859000245e-10 0.0000000000000000e+00  7.8640531800559849e-11 2.1116223587930101e-10 0.0000000000000000e+00  8.4123026828887647e-11 2.1626312754043089e-10 0.0000000000000000e+00  8.9551018136462554e-11 2.2071671202311448e-10 0.0000000000000000e+00  9.4916472139974895e-11 2.2633381389882679e-10 0.0000000000000000e+00  1.0029315394649174e-10 2.3134178817182627e-10 0.0000000000000000e+00  1.0546216311593293e-10 2.3746541943420477e-10 0.0000000000000000e+00  1.1104930407168562e-10 2.4311507650554494e-10 0.0000000000000000e+00  1.1598360101283740e-10 2.4987187970891327e-10 0.0000000000000000e+00  1.2134857165226708e-10 2.5641643018220550e-10 0.0000000000000000e+00  1.2666568088491358e-10 2.6305279365909543e-10 0.0000000000000000e+00  1.3196707584276501e-10 2.7069525723694589e-10 0.0000000000000000e+00  1.3713162728042525e-10 2.7806200796666942e-10 0.0000000000000000e+00  1.4208758005468599e-10 2.8647944397618670e-10 0.0000000000000000e+00  1.4685431264599993e-10 2.9454501179032695e-10 0.0000000000000000e+00  1.5126605066037511e-10 3.0354906137181401e-10 0.0000000000000000e+00  1.5585744839870397e-10 3.1252780177317091e-10 0.0000000000000000e+00  1.5878416415838401e-10 3.2289954773917715e-10 0.0000000000000000e+00  1.6138121404729080e-10 3.3349620334331175e-10 0.0000000000000000e+00  1.6272088630837667e-10 3.4396550339163740e-10 0.0000000000000000e+00  1.6258497199696099e-10 3.5631547144999757e-10 0.0000000000000000e+00  1.6068205326549160e-10 3.6805950322210900e-10 0.0000000000000000e+00  1.5623198643672224e-10 3.8180310004569260e-10 0.0000000000000000e+00  1.4947280586998500e-10 3.9557375215039623e-10 0.0000000000000000e+00  1.3701321841536811e-10 4.1170206865724123e-10 0.0000000000000000e+00  1.2014121236497671e-10 4.2819087095896382e-10 0.0000000000000000e+00  9.6574379036162446e-11 4.4552658305149971e-10 0.0000000000000000e+00  6.7726320901653393e-11 4.6991598752731478e-10 0.0000000000000000e+00  3.8354218982963176e-11 4.9673439205989915e-10 0.0000000000000000e+00  5.1797309212888743e-11 5.0847915907124788e-10 0.0000000000000000e+00  -1.1159887940784179e-11 -9.0410635656946070e-12 0.0000000000000000e+00  -1.9500172474676551e-10 -4.8547612739835188e-12 0.0000000000000000e+00  -1.1130388713800929e-10 -6.3923198925023605e-12 0.0000000000000000e+00  -2.8947417460145197e-11 -5.4415178659109402e-12 0.0000000000000000e+00  9.1335438069136784e-11 -7.1093594846715213e-12 0.0000000000000000e+00  3.0374593589984886e-12 -3.7727772489999912e-12 0.0000000000000000e+00  1.3548880013534256e-10 -1.1978089254303099e-12 0.0000000000000000e+00  2.6615372802002810e-11 -3.9008729038084484e-12 0.0000000000000000e+00  1.6491018112066443e-10 -3.9672534479163699e-13 0.0000000000000000e+00  1.6826177349067509e-10 -5.3443856628079413e-12 0.0000000000000000e+00  4.4646109878103291e-11 -4.0224428890286908e-12 0.0000000000000000e+00  1.5314191789452065e-10 -9.5153183257029187e-13 0.0000000000000000e+00  7.1986134465950535e-11 -4.3300035727435118e-12 0.0000000000000000e+00  1.6525374258530372e-10 -9.6313199701798511e-13 0.0000000000000000e+00  1.4341880242886378e-10 -5.0174840240877523e-12 0.0000000000000000e+00  8.3575370413174351e-11 -4.4521574097532264e-12 0.0000000000000000e+00  5.9302559218077550e-11 -4.2037782117234312e-12 0.0000000000000000e+00  1.3278071584308813e-10 -5.0290910579132190e-12 0.0000000000000000e+00  9.4655253342119115e-11 -4.6097887794975102e-12 0.0000000000000000e+00  1.2233605281251515e-10 -1.5555156490746003e-12 0.0000000000000000e+00  1.0532731854859506e-10 -7.7988534905015953e-12 0.0000000000000000e+00  1.1444450174007007e-10 -4.7155985962576901e-12 0.0000000000000000e+00  1.6066955680963260e-10 -5.6860229400146054e-12 0.0000000000000000e+00  -6.5479322430393549e-11 -3.0759119294700374e-12 0.0000000000000000e+00  1.5497536304289935e-10 -5.8633257568739607e-12 0.0000000000000000e+00  -1.4858539747665453e-10 4.6015395853907352e-11 0.0000000000000000e+00  5.2917959371653691e-11 1.7158538551185038e-10 0.0000000000000000e+00  1.5650636288842840e-11 4.8708745434185389e-11 0.0000000000000000e+00  -1.1935984516754757e-11 4.6750876767238390e-11 0.0000000000000000e+00  1.1724582712620215e-10 -1.6347596233848086e-10 0.0000000000000000e+00  1.6727451070007259e-10 -1.1133989191156532e-10 0.0000000000000000e+00  6.5765803695606017e-11 5.4742981437060941e-11 0.0000000000000000e+00  3.6111442760242085e-11 5.0657383149349738e-11 0.0000000000000000e+00  1.4834330076406869e-10 -9.0192943160583726e-11 0.0000000000000000e+00  7.7810038054724030e-11 5.7120053836628402e-11 0.0000000000000000e+00  1.6705317849218019e-10 -1.0430327051233528e-10 0.0000000000000000e+00  1.3798361819618985e-10 -8.5463614844997178e-11 0.0000000000000000e+00  8.9073112666445392e-11 5.9723465125994941e-11 0.0000000000000000e+00  5.2230550696665475e-11 5.2623120925710961e-11 0.0000000000000000e+00  1.2710516210255189e-10 -9.8117425673138489e-11 0.0000000000000000e+00  1.0003314707671435e-10 6.2631615854769557e-11 0.0000000000000000e+00  -6.7790102085507327e-11 -1.4847836854719892e-10 0.0000000000000000e+00  -6.8657069475104452e-11 1.3667513416056822e-10 0.0000000000000000e+00  -2.4181319610784308e-10 -3.4883137563488883e-11 0.0000000000000000e+00  5.3979606596167455e-11 -2.0628019469178532e-10 0.0000000000000000e+00  1.0952501600701695e-10 8.189560887