<?xml version="1.0"?>
<VTKFile type="UnstructuredGrid"  version="0.1"  >
<UnstructuredGrid>
<Piece  NumberOfPoints="1419" NumberOfCells="2698">
<Points>
<DataArray  type="Float64"  NumberOfComponents="3"  format="ascii">0 0 0  0 0.41 0  2.5 0 0  2.5 0.41 0  0.5999999917629263 0.1900000016542753 0  0.5999999917762875 0.209999998238207 0  0.25 0.2 0  0.15 0.2 0  0.2489897948556636 0.21 0  0.2489897948556636 0.19 0  0.5999999917745866 0.1999999999468636 0  0 0.3807142857143437 0  0 0.3514285714286952 0  0 0.3221428571430699 0  0 0.29285714285744 0  0 0.2635714285718054 0  0 0.2342857142861561 0  0 0.2050000000005308 0  0 0.175714285714732 0  0 0.1464285714289574 0  0 0.1171428571431897 0  0 0.08785714285737878 0  0 0.05857142857161107 0  0 0.02928571428580012 0  0.03015443760436003 0 0  0.06140001986583606 0 0  0.09377624077125973 0 0  0.1273239957535082 0 0  0.1620856860351972 0 0  0.1981052433264291 0 0  0.235428184091502 0 0  0.2741016576309132 0 0  0.3141745521465447 0 0  0.3556974926295285 0 0  0.3987229542472677 0 0  0.4433053055141081 0 0  0.4895008759286886 0 0  0.5373680609405097 0 0  0.5869673343216626 0 0  0.6383613676634521 0 0  0.6916151138468254 0 0  0.7467958595648856 0 0  0.8039733463919316 0 0  0.8632198139502143 0 0  0.9246101326867038 0 0  0.9882218810934433 0 0  1.054135445558498 0 0  1.122434100542598 0 0  1.193204177141305 0 0  1.266535089879536 0 0  1.342519516046404 0 0  1.421253448503939 0 0  1.502836389106271 0 0  1.587371439758838 0 0  1.674965418777374 0 0  1.765729001825544 0 0  1.859776908880082 0 0  1.957227977487062 0 0  2.058205329869943 0 0  2.162836591189951 0 0  2.271253957290865 0 0  2.383594446803425 0 0  2.5 0.1024999999997612 0  2.5 0.2049999999994743 0  2.5 0.3074999999997183 0  2.383594446803656 0.41 0  2.271253957291315 0.41 0  2.162836591190598 0.41 0  2.058205329870775 0.41 0  1.957227977488067 0.41 0  1.859776908881246 0.41 0  1.765729001826854 0.41 0  1.674965418778818 0.41 0  1.58737143976041 0.41 0  1.502836389107956 0.41 0  1.421253448505726 0.41 0  1.342519516048286 0.41 0  1.266535089881505 0.41 0  1.193204177143353 0.41 0  1.122434100544716 0.41 0  1.05413544556068 0.41 0  0.9882218810956305 0.41 0  0.9246101326886647 0.41 0  0.8632198139519631 0.41 0  0.8039733463934788 0.41 0  0.7467958595662458 0.41 0  0.6916151138480078 0.41 0  0.6383613676644679 0.41 0  0.5869673343225223 0.41 0  0.5373680609412221 0.41 0  0.4895008759292634 0.41 0  0.4433053055145528 0.41 0  0.3987229542475914 0.41 0  0.3556974926297398 0.41 0  0.3141745521466497 0.41 0  0.2741016576310038 0.41 0  0.2354281840915826 0.41 0  0.1981052433265003 0.41 0  0.1620856860352591 0.41 0  0.1273239957535623 0.41 0  0.09377624077128965 0.41 0  0.06140001986584975 0.41 0  0.03015443760436654 0.41 0  0.2497468076502589 0.2050254481002335 0  0.2497468076502614 0.1949745518997913 0  0.2469965252529372 0.1829317073451959 0  0.2439893735792749 0.1762316384219906 0  0.2400332147834255 0.1700443375285386 0  0.2352133972704371 0.1645032867342007 0  0.2296339016332438 0.1597280261969788 0  0.2234150974217223 0.1558215752574715 0  0.2166911463437691 0.1528682099456123 0  0.2096071079204251 0.1509316448471593 0  0.2023158100364996 0.1500536585536553 0  0.194974551899914 0.1502531923497262 0  0.1877417105387872 0.1515259415822739 0  0.1807733240461124 0.153844448527136 0  0.1742197252835808 0.15715869474974 0  0.1682222986673531 0.1613971801805478 0  0.162910430003803 0.1664684656256651 0  0.1583987151779087 0.1722631454351573 0  0.1547844879126891 0.178656207771761 0  0.1521457199348551 0.1855097315605723 0  0.1505393388476355 0.1926758619366523 0  0.1505393388476328 0.2073241380633295 0  0.1521457199348437 0.2144902684393899 0  0.1547844879126531 0.221343792228163 0  0.1583987151778488 0.2277368545647528 0  0.1629104300036858 0.2335315343742052 0  0.1682222986671726 0.2386028198193036 0  0.1742197252833576 0.2428413052501257 0  0.1807733240458683 0.2461555514727623 0  0.1877417105384929 0.2484740584176516 0  0.1949745518995776 0.2497468076502398 0  0.202315810036185 0.2499463414463592 0  0.2096071079201568 0.2490683551528932 0  0.2166911463435495 0.2471317900544655 0  0.2234150974215506 0.2441784247426195 0  0.2296339016331197 0.2402719738031125 0  0.2352133972703547 0.2354967132658811 0  0.2400332147833751 0.2299556624715287 0  0.2439893735792577 0.2237683615780412 0  0.246996525252926 0.2170682926548348 0  0.2564580974092386 0.2099999962679867 0  0.2639263994909983 0.2099999961533431 0  0.2713947019386882 0.2099999962080324 0  0.2788630044276839 0.2099999962643237 0  0.2863313069112013 0.2099999963021608 0  0.2937996093670732 0.2099999963444958 0  0.3012679118024106 0.2099999963901151 0  0.3087362142110424 0.2099999964369494 0  0.3162045166009204 0.2099999964854505 0  0.3236728189691792 0.2099999965278717 0  0.3311411213175316 0.2099999965757941 0  0.3386094236462123 0.2099999966155947 0  0.3460777259550053 0.2099999966580693 0  0.353546028247496 0.2099999966976882 0  0.3610143305192983 0.2099999967357278 0  0.3684826327768735 0.2099999967731923 0  0.3759509350178748 0.209999996806111 0  0.3834192372435733 0.2099999968431611 0  0.3908875394546684 0.2099999968740073 0  0.3983558416511659 0.2099999969093166 0  0.4058241438340405 0.2099999969400434 0  0.4132924460020908 0.2099999969733028 0  0.4207607481581351 0.209999997005537 0  0.4282290502968131 0.2099999970378926 0  0.4356973524225842 0.2099999970706671 0  0.4431656545324105 0.2099999971022285 0  0.4506339566260859 0.2099999971366782 0  0.4581022587030494 0.2099999971691921 0  0.4655705607610083 0.2099999972057676 0  0.4730388627997338 0.209999997239573 0  0.4805071648167276 0.2099999972788503 0  0.4879754668100613 0.2099999973152838 0  0.4954437687791158 0.2099999973579424 0  0.5029120707194262 0.209999997399735 0  0.5103803726277656 0.2099999974469449 0  0.5178486745033715 0.2099999974913535 0  0.5253169763422522 0.2099999975435159 0  0.5327852781415929 0.2099999975940071 0  0.5402535798957717 0.2099999976550176 0  0.5477218816014123 0.2099999977133361 0  0.5551901832542986 0.2099999977800285 0  0.5626584848523125 0.2099999978517298 0  0.5701267863813859 0.2099999979249827 0  0.5775950878449826 0.2099999980057389 0  0.5850633892350146 0.2099999980884505 0  0.5925316905518248 0.2099999981913126 0  0.5999999917613824 0.2049999990806111 0  0.5999999917572647 0.1950000008140348 0  0.5925316905418823 0.1900000017104157 0  0.5850633892291567 0.1900000018201786 0  0.5775950878424945 0.1900000019061294 0  0.5701267863804573 0.1900000019902005 0  0.5626584848527081 0.1900000020635219 0  0.5551901832562089 0.1900000021329296 0  0.5477218816044384 0.1900000021983169 0  0.5402535798985392 0.1900000022518603 0  0.5327852781448555 0.1900000023118298 0  0.5253169763464639 0.1900000023593444 0  0.5178486745072685 0.1900000024132504 0  0.5103803726308705 0.1900000024551537 0  0.5029120707211311 0.1900000025021904 0  0.495443768780943 0.1900000025389113 0  0.4879754668129929 0.1900000025811964 0  0.4805071648195488 0.1900000026151211 0  0.4730388628024405 0.1900000026546058 0  0.4655705607635877 0.1900000026862449 0  0.4581022587049829 0.1900000027227693 0  0.4506339566282754 0.1900000027523421 0  0.4431656545345628 0.1900000027873519 0  0.4356973524248295 0.1900000028168067 0  0.4282290502988899 0.1900000028502306 0  0.4207607481598295 0.1900000028818318 0  0.4132924460036037 0.1900000029141484 0  0.4058241438350356 0.1900000029462258 0  0.3983558416523673 0.1900000029772825 0  0.3908875394557877 0.1900000030120907 0  0.3834192372447394 0.1900000030447898 0  0.3759509350187315 0.1900000030812042 0  0.368482632777889 0.1900000031151154 0  0.3610143305212057 0.1900000031516181 0  0.3535460282504472 0.1900000031887633 0  0.3460777259589894 0.190000003226639 0  0.3386094236510458 0.1900000032656251 0  0.3311411213234617 0.1900000033019875 0  0.3236728189758022 0.1900000033430066 0  0.3162045166071547 0.1900000033799508 0  0.308736214215823 0.1900000034212715 0  0.3012679118026644 0.1900000034627554 0  0.2937996093617578 0.1900000035074164 0  0.2863313068974422 0.1900000035543045 0  0.2788630044051688 0.1900000036052475 0  0.2713947019095588 0.1900000036861945 0  0.2639263994605016 0.1900000037735988 0  0.2564580973737794 0.1900000036836789 0  0.2607803157196583 0.2000727135734273 0  0.5887803706970136 0.200127238629645 0  0.5745072352812348 0.2002044434185567 0  0.5511891400271852 0.200112260939681 0  0.2751288531759935 0.1999999999398789 0  0.5365194290442223 0.1999999999533924 0  0.2894621232748272 0.1998691686114386 0  0.5215828254463469 0.1999999999518579 0  0.3127789832286921 0.1998657885212468 0  0.3274069701640667 0.199999999937446 0  0.5066462216941078 0.1999999999507802 0  0.3650630767918837 0.1998660177945772 0  0.4767730138258852 0.1999999999470328 0  0.3417402399535101 0.1998691686237727 0  0.3796850861461572 0.1999999999440042 0  0.4618364097487092 0.1999999999459106 0  0.491709617813445 0.1999999999485204 0  0.3946216905679482 0.1999999999432969 0  0.4468998055953651 0.1999999999446431 0  0.4089549600784012 0.1998691686215751 0  0.4322718191660486 0.2001274511728093 0  0.4201487186716626 0.1999966198496408 0  0.3528922734051176 0.2000185702906986 0  0.5633122396647536 0.1999814296085488 0  0.3006558822949545 0.19999661983139 0  0.5815926439492179 0.1966545289083448 0  0.2677053791195489 0.19642464925179 0  0.5290511272654372 0.1970915833317368 0  0.5439877307741516 0.1970915833011801 0  0.2825131264577346 0.2035478982328884 0  0.3199386678042409 0.2029084162515537 0  0.4842413158310752 0.1970915834045805 0  0.5141145235868634 0.1970915833596129 0  0.3722167839121203 0.2029084163409954 0  0.4693047117968957 0.1970915834246561 0  0.3348752724997928 0.2029084162820099 0  0.3871533883633612 0.2029084163607896 0  0.4543681076801319 0.1970915834432939 0  0.4991779197674311 0.1970915833834749 0  0.402005963533374 0.2035478984708955 0  0.4394315034926299 0.1970915834613966 0  0.2550657449399538 0.2034088114784008 0  0.2548908493153281 0.1966940321504183 0  0.59465394352
[...]
<PointData  Vectors="f_44-1"> 
<DataArray  type="Float64"  Name="f_44-1"  NumberOfComponents="3" format="ascii">0.0000000000000000e+00 0.0000000000000000e+00 0.0000000000000000e+00  0.0000000000000000e+00 0.0000000000000000e+00 0.0000000000000000e+00  0.0000000000000000e+00 0.0000000000000000e+00 0.0000000000000000e+00  0.0000000000000000e+00 0.0000000000000000e+00 0.0000000000000000e+00  -4.4118802290880775e-09 7.3976283904321319e-10 0.0000000000000000e+00  -4.4050984035853460e-09 -7.9133179783422025e-10 0.0000000000000000e+00  0.0000000000000000e+00 0.0000000000000000e+00 0.0000000000000000e+00  0.0000000000000000e+00 0.0000000000000000e+00 0.0000000000000000e+00  0.0000000000000000e+00 0.0000000000000000e+00 0.0000000000000000e+00  0.0000000000000000e+00 0.0000000000000000e+00 0.0000000000000000e+00  -4.4137739553586015e-09 -2.5538347780817455e-11 0.0000000000000000e+00  0.0000000000000000e+00 0.0000000000000000e+00 0.0000000000000000e+00  0.0000000000000000e+00 0.0000000000000000e+00 0.0000000000000000e+00  0.0000000000000000e+00 0.0000000000000000e+00 0.0000000000000000e+00  0.0000000000000000e+00 0.0000000000000000e+00 0.0000000000000000e+00  0.0000000000000000e+00 0.0000000000000000e+00 0.0000000000000000e+00  0.0000000000000000e+00 0.0000000000000000e+00 0.0000000000000000e+00  0.0000000000000000e+00 0.0000000000000000e+00 0.0000000000000000e+00  0.0000000000000000e+00 0.0000000000000000e+00 0.0000000000000000e+00  0.0000000000000000e+00 0.0000000000000000e+00 0.0000000000000000e+00  0.0000000000000000e+00 0.0000000000000000e+00 0.0000000000000000e+00  0.0000000000000000e+00 0.0000000000000000e+00 0.0000000000000000e+00  0.0000000000000000e+00 0.0000000000000000e+00 0.0000000000000000e+00  0.0000000000000000e+00 0.0000000000000000e+00 0.0000000000000000e+00  0.0000000000000000e+00 0.0000000000000000e+00 0.0000000000000000e+00  0.0000000000000000e+00 0.0000000000000000e+00 0.0000000000000000e+00  0.0000000000000000e+00 0.0000000000000000e+00 0.0000000000000000e+00  0.0000000000000000e+00 0.0000000000000000e+00 0.0000000000000000e+00  0.0000000000000000e+00 0.0000000000000000e+00 0.0000000000000000e+00  0.0000000000000000e+00 0.0000000000000000e+00 0.0000000000000000e+00  0.0000000000000000e+00 0.0000000000000000e+00 0.0000000000000000e+00  0.0000000000000000e+00 0.0000000000000000e+00 0.0000000000000000e+00  0.0000000000000000e+00 0.0000000000000000e+00 0.0000000000000000e+00  0.0000000000000000e+00 0.0000000000000000e+00 0.0000000000000000e+00  0.0000000000000000e+00 0.0000000000000000e+00 0.0000000000000000e+00  0.0000000000000000e+00 0.0000000000000000e+00 0.0000000000000000e+00  0.0000000000000000e+00 0.0000000000000000e+00 0.0000000000000000e+00  0.0000000000000000e+00 0.0000000000000000e+00 0.0000000000000000e+00  0.0000000000000000e+00 0.0000000000000000e+00 0.0000000000000000e+00  0.0000000000000000e+00 0.0000000000000000e+00 0.0000000000000000e+00  0.0000000000000000e+00 0.0000000000000000e+00 0.0000000000000000e+00  0.0000000000000000e+00 0.0000000000000000e+00 0.0000000000000000e+00  0.0000000000000000e+00 0.0000000000000000e+00 0.0000000000000000e+00  0.0000000000000000e+00 0.0000000000000000e+00 0.0000000000000000e+00  0.0000000000000000e+00 0.0000000000000000e+00 0.0000000000000000e+00  0.0000000000000000e+00 0.0000000000000000e+00 0.0000000000000000e+00  0.0000000000000000e+00 0.0000000000000000e+00 0.0000000000000000e+00  0.0000000000000000e+00 0.0000000000000000e+00 0.0000000000000000e+00  0.0000000000000000e+00 0.0000000000000000e+00 0.0000000000000000e+00  0.0000000000000000e+00 0.0000000000000000e+00 0.0000000000000000e+00  0.0000000000000000e+00 0.0000000000000000e+00 0.0000000000000000e+00  0.0000000000000000e+00 0.0000000000000000e+00 0.0000000000000000e+00  0.0000000000000000e+00 0.0000000000000000e+00 0.0000000000000000e+00  0.0000000000000000e+00 0.0000000000000000e+00 0.0000000000000000e+00  0.0000000000000000e+00 0.0000000000000000e+00 0.0000000000000000e+00  0.0000000000000000e+00 0.0000000000000000e+00 0.0000000000000000e+00  0.0000000000000000e+00 0.0000000000000000e+00 0.0000000000000000e+00  0.0000000000000000e+00 0.0000000000000000e+00 0.0000000000000000e+00  0.0000000000000000e+00 0.0000000000000000e+00 0.0000000000000000e+00  0.0000000000000000e+00 0.0000000000000000e+00 0.0000000000000000e+00  0.0000000000000000e+00 0.0000000000000000e+00 0.0000000000000000e+00  0.0000000000000000e+00 0.0000000000000000e+00 0.0000000000000000e+00  0.0000000000000000e+00 0.0000000000000000e+00 0.0000000000000000e+00  0.0000000000000000e+00 0.0000000000000000e+00 0.0000000000000000e+00  0.0000000000000000e+00 0.0000000000000000e+00 0.0000000000000000e+00  0.0000000000000000e+00 0.0000000000000000e+00 0.0000000000000000e+00  0.0000000000000000e+00 0.0000000000000000e+00 0.0000000000000000e+00  0.0000000000000000e+00 0.0000000000000000e+00 0.0000000000000000e+00  0.0000000000000000e+00 0.0000000000000000e+00 0.0000000000000000e+00  0.0000000000000000e+00 0.0000000000000000e+00 0.0000000000000000e+00  0.0000000000000000e+00 0.0000000000000000e+00 0.0000000000000000e+00  0.0000000000000000e+00 0.0000000000000000e+00 0.0000000000000000e+00  0.0000000000000000e+00 0.0000000000000000e+00 0.0000000000000000e+00  0.0000000000000000e+00 0.0000000000000000e+00 0.0000000000000000e+00  0.0000000000000000e+00 0.0000000000000000e+00 0.0000000000000000e+00  0.0000000000000000e+00 0.0000000000000000e+00 0.0000000000000000e+00  0.0000000000000000e+00 0.0000000000000000e+00 0.0000000000000000e+00  0.0000000000000000e+00 0.0000000000000000e+00 0.0000000000000000e+00  0.0000000000000000e+00 0.0000000000000000e+00 0.0000000000000000e+00  0.0000000000000000e+00 0.0000000000000000e+00 0.0000000000000000e+00  0.0000000000000000e+00 0.0000000000000000e+00 0.0000000000000000e+00  0.0000000000000000e+00 0.0000000000000000e+00 0.0000000000000000e+00  0.0000000000000000e+00 0.0000000000000000e+00 0.0000000000000000e+00  0.0000000000000000e+00 0.0000000000000000e+00 0.0000000000000000e+00  0.0000000000000000e+00 0.0000000000000000e+00 0.0000000000000000e+00  0.0000000000000000e+00 0.0000000000000000e+00 0.0000000000000000e+00  0.0000000000000000e+00 0.0000000000000000e+00 0.0000000000000000e+00  0.0000000000000000e+00 0.0000000000000000e+00 0.0000000000000000e+00  0.0000000000000000e+00 0.0000000000000000e+00 0.0000000000000000e+00  0.0000000000000000e+00 0.0000000000000000e+00 0.0000000000000000e+00  0.0000000000000000e+00 0.0000000000000000e+00 0.0000000000000000e+00  0.0000000000000000e+00 0.0000000000000000e+00 0.0000000000000000e+00  0.0000000000000000e+00 0.0000000000000000e+00 0.0000000000000000e+00  0.0000000000000000e+00 0.0000000000000000e+00 0.0000000000000000e+00  0.0000000000000000e+00 0.0000000000000000e+00 0.0000000000000000e+00  0.0000000000000000e+00 0.0000000000000000e+00 0.0000000000000000e+00  0.0000000000000000e+00 0.0000000000000000e+00 0.0000000000000000e+00  0.0000000000000000e+00 0.0000000000000000e+00 0.0000000000000000e+00  0.0000000000000000e+00 0.0000000000000000e+00 0.0000000000000000e+00  0.0000000000000000e+00 0.0000000000000000e+00 0.0000000000000000e+00  0.0000000000000000e+00 0.0000000000000000e+00 0.0000000000000000e+00  0.0000000000000000e+00 0.0000000000000000e+00 0.0000000000000000e+00  0.0000000000000000e+00 0.0000000000000000e+00 0.0000000000000000e+00  0.0000000000000000e+00 0.0000000000000000e+00 0.0000000000000000e+00  0.0000000000000000e+00 0.0000000000000000e+00 0.0000000000000000e+00  0.0000000000000000e+00 0.0000000000000000e+00 0.0000000000000000e+00  0.0000000000000000e+00 0.0000000000000000e+00 0.0000000000000000e+00  0.0000000000000000e+00 0.0000000000000000e+00 0.0000000000000000e+00  0.0000000000000000e+00 0.0000000000000000e+00 0.0000000000000000e+00  0.0000000000000000e+00 0.0000000000000000e+00 0.0000000000000000e+00  0.0000000000000000e+00 0.0000000000000000e+00 0.0000000000000000e+00  0.0000000000000000e+00 0.0000000000000000e+00 0.0000000000000000e+00  0.0000000000000000e+00 0.0000000000000000e+00 0.0000000000000000e+00  0.0000000000000000e+00 0.0000000000000000e+00 0.0000000000000000e+00  0.0000000000000000e+00 0.0000000000000000e+00 0.0000000000000000e+00  0.0000000000000000e+00 0.0000000000000000e+00 0.0000000000000000e+00  0.0000000000000000e+00 0.0000000000000000e+00 0.0000000000000000e+00  0.0000000000000000e+00 0.0000000000000000e+00 0.0000000000000000e+00  0.0000000000000000e+00 0.0000000000000000e+00 0.0000000000000000e+00  0.0000000000000000e+00 0.0000000000000000e+00 0.0000000000000000e+00  0.0000000000000000e+00 0.0000000000000000e+00 0.0000000000000000e+00  0.0000000000000000e+00 0.0000000000000000e+00 0.0000000000000000e+00  0.0000000000000000e+00 0.0000000000000000e+00 0.0000000000000000e+00  0.0000000000000000e+00 0.0000000000000000e+00 0.0000000000000000e+00  0.0000000000000000e+00 0.0000000000000000e+00 0.0000000000000000e+00  0.0000000000000000e+00 0.0000000000000000e+00 0.0000000000000000e+00  0.0000000000000000e+00 0.0000000000000000e+00 0.0000000000000000e+00  0.0000000000000000e+00 0.0000000000000000e+00 0.0000000000000000e+00  0.0000000000000000e+00 0.0000000000000000e+00 0.0000000000000000e+00  0.0000000000000000e+00 0.0000000000000000e+00 0.0000000000000000e+00  0.0000000000000000e+00 0.0000000000000000e+00 0.0000000000000000e+00  0.0000000000000000e+00 0.0000000000000000e+00 0.0000000000000000e+00  0.0000000000000000e+00 0.0000000000000000e+00 0.0000000000000000e+00  0.0000000000000000e+00 0.0000000000000000e+00 0.0000000000000000e+00  0.0000000000000000e+00 0.0000000000000000e+00 0.0000000000000000e+00  0.0000000000000000e+00 0.0000000000000000e+00 0.0000000000000000e+00  0.0000000000000000e+00 0.0000000000000000e+00 0.0000000000000000e+00  0.0000000000000000e+00 0.0000000000000000e+00 0.0000000000000000e+00  0.0000000000000000e+00 0.0000000000000000e+00 0.0000000000000000e+00  0.0000000000000000e+00 0.0000000000000000e+00 0.0000000000000000e+00  0.0000000000000000e+00 0.0000000000000000e+00 0.0000000000000000e+00  0.0000000000000000e+00 0.0000000000000000e+00 0.0000000000000000e+00  0.0000000000000000e+00 0.0000000000000000e+00 0.0000000000000000e+00  1.1374956528203048e-10 -1.5177579639862003e-09 0.0000000000000000e+00  3.7987828932404613e-11 -1.5711824039552490e-09 0.0000000000000000e+00  1.1450359634091950e-10 -1.5564120173752166e-09 0.0000000000000000e+00  2.1136179643720547e-10 -1.5427002748277288e-09 0.0000000000000000e+00  3.0923055375344576e-10 -1.5358184552123693e-09 0.0000000000000000e+00  3.9890039006847703e-10 -1.5272486647234034e-09 0.0000000000000000e+00  4.8253139309374263e-10 -1.5166654276448160e-09 0.0000000000000000e+00  5.5857709461561262e-10 -1.5043153536078487e-09 0.0000000000000000e+00  6.2848997579660477e-10 -1.4905983135668253e-09 0.0000000000000000e+00  6.9127823510024200e-10 -1.4778120153460976e-09 0.0000000000000000e+00  7.4682379334814499e-10 -1.4629430670831200e-09 0.0000000000000000e+00  7.9486762006022155e-10 -1.4501753885243830e-09 0.0000000000000000e+00  8.3488636448757189e-10 -1.4363077647852791e-09 0.0000000000000000e+00  8.6748313689961634e-10 -1.4232721478306163e-09 0.0000000000000000e+00  8.9115428719253148e-10 -1.4103540300898121e-09 0.0000000000000000e+00  9.0747236088464665e-10 -1.3975449914752427e-09 0.0000000000000000e+00  9.1556617611543423e-10 -1.3860438330098259e-09 0.0000000000000000e+00  9.1556490820554751e-10 -1.3728571437891436e-09 0.0000000000000000e+00  9.0758222075906286e-10 -1.3616530839624170e-09 0.0000000000000000e+00  8.9139903998292317e-10 -1.3485188018958815e-09 0.0000000000000000e+00  8.6725667183005616e-10 -1.3368506375644837e-09 0.0000000000000000e+00  8.3447971419581704e-10 -1.3238804413483857e-09 0.0000000000000000e+00  7.9399958475212640e-10 -1.3112689215672553e-09 0.0000000000000000e+00  7.4365886470391639e-10 -1.2979968430303070e-09 0.0000000000000000e+00  6.8498796862386085e-10 -1.2844724496332752e-09 0.0000000000000000e+00  6.1664070379622152e-10 -1.2711292672026174e-09 0.0000000000000000e+00  5.3841458497244833e-10 -1.2563352882805158e-09 0.0000000000000000e+00  4.5001358004833677e-10 -1.2420876461728478e-09 0.0000000000000000e+00  3.5026103570093610e-10 -1.2258021674615889e-09 0.0000000000000000e+00  2.3910468392488034e-10 -1.2105518666023821e-09 0.0000000000000000e+00  1.1531262491032259e-10 -1.1925869011493153e-09 0.0000000000000000e+00  -2.1909948826241809e-11 -1.1757780858593570e-09 0.0000000000000000e+00  -1.7280459178116441e-10 -1.1559526500621406e-09 0.0000000000000000e+00  -3.3933461674525611e-10 -1.1364577845427203e-09 0.0000000000000000e+00  -5.2274510649274067e-10 -1.1144479330605138e-09 0.0000000000000000e+00  -7.2312469600665452e-10 -1.0938042792379511e-09 0.0000000000000000e+00  -9.4197696514575927e-10 -1.0697048537407085e-09 0.0000000000000000e+00  -1.1802198948543642e-09 -1.0466128156597748e-09 0.0000000000000000e+00  -1.4397454004455572e-09 -1.0191457822534757e-09 0.0000000000000000e+00  -1.7214484312282099e-09 -9.9332297363185563e-10 0.0000000000000000e+00  -2.0264067457503013e-09 -9.6441993828917130e-10 0.0000000000000000e+00  -2.3547916991688105e-09 -9.3433293005712948e-10 0.0000000000000000e+00  -2.7112565693921064e-09 -9.0415800034190217e-10 0.0000000000000000e+00  -3.0935255015789902e-09 -8.7211068687740412e-10 0.0000000000000000e+00  -3.5036641909963789e-09 -8.4032926415322985e-10 0.0000000000000000e+00  -3.9391154451571331e-09 -8.0212556118282989e-10 0.0000000000000000e+00  -4.4169826113071663e-09 -4.1344128910334307e-10 0.0000000000000000e+00  -4.4193035042366244e-09 3.6259786398850640e-10 0.0000000000000000e+00  -3.9445167318007549e-09 7.5547015407388191e-10 0.0000000000000000e+00  -3.5074227597309398e-09 7.9741847831709109e-10 0.0000000000000000e+00  -3.0957622651559067e-09 8.3142700206438232e-10 0.0000000000000000e+00  -2.7125274106202479e-09 8.6547698362625773e-10 0.0000000000000000e+00  -2.3552516550183069e-09 8.9615400858060080e-10 0.0000000000000000e+00  -2.0259797620489320e-09 9.2557041034449716e-10 0.0000000000000000e+00  -1.7204252869469311e-09 9.5407246176599937e-10 0.0000000000000000e+00  -1.4387238872708319e-09 9.7783923729955343e-10 0.0000000000000000e+00  -1.1789789305541529e-09 1.0048710695808613e-09 0.0000000000000000e+00  -9.4031236645352976e-10 1.0265722715469217e-09 0.0000000000000000e+00  -7.2158331980451831e-10 1.0514513283193299e-09 0.0000000000000000e+00  -5.2155756950322090e-10 1.0709374391568711e-09 0.0000000000000000e+00  -3.3881028806330724e-10 1.0928792948842447e-09 0.0000000000000000e+00  -1.7227124437501961e-10 1.1100035870426614e-09 0.0000000000000000e+00  -2.0879122009070621e-11 1.1296583286352560e-09 0.0000000000000000e+00  1.1626955402408310e-10 1.1453147138433017e-09 0.0000000000000000e+00  2.3997486642581914e-10 1.1633991618608496e-09 0.0000000000000000e+00  3.5103245405853974e-10 1.1777078786348093e-09 0.0000000000000000e+00  4.5043746076387468e-10 1.1939953647069729e-09 0.0000000000000000e+00  5.3892865648995776e-10 1.2069501624678561e-09 0.0000000000000000e+00  6.1711748292001196e-10 1.2220472912620202e-09 0.0000000000000000e+00  6.8546571689823387e-10 1.2345075470438144e-09 0.0000000000000000e+00  7.4408303013700958e-10 1.2483569997583267e-09 0.0000000000000000e+00  7.9422505471259315e-10 1.2613369553067778e-09 0.0000000000000000e+00  8.3463253958333618e-10 1.2740705763714285e-09 0.0000000000000000e+00  8.6719172942628049e-10 1.2866031583828173e-09 0.0000000000000000e+00  8.9142632296787931e-10 1.2985017894516015e-09 0.0000000000000000e+00  9.0760558155934691e-10 1.3115559515182054e-09 0.0000000000000000e+00  9.1564563328684891e-10 1.3236083925931492e-09 0.0000000000000000e+00  9.1560660025786555e-10 1.3366991782733738e-09 0.0000000000000000e+00  9.0772610494905637e-10 1.3486076419118994e-09 0.0000000000000000e+00  8.9189880856894628e-10 1.3610313460126489e-09 0.0000000000000000e+00  8.6885800652646157e-10 1.3733805016418739e-09 0.0000000000000000e+00  8.3688952213304012e-10 1.3852624783941739e-09 0.0000000000000000e+00  7.9742892581602027e-10 1.3971091772195819e-09 0.0000000000000000e+00  7.4984628359755885e-10 1.4075892950448927e-09 0.0000000000000000e+00  6.9435694712141956e-10 1.4189924652648082e-09 0.0000000000000000e+00  6.3099221743134712e-10 1.4288338597670702e-09 0.0000000000000000e+00  5.5969221495205930e-10 1.4397077609979247e-09 0.0000000000000000e+00  4.8099026625213230e-10 1.4506420513064630e-09 0.0000000000000000e+00  3.9431828869366558e-10 1.4626603307375935e-09 0.0000000000000000e+00  3.0092893711342643e-10 1.4757197129678571e-09 0.0000000000000000e+00  1.9973983622440292e-10 1.4908211882622465e-09 0.0000000000000000e+00  1.0109223316778741e-10 1.5169653582353487e-09 0.0000000000000000e+00  2.5319727184874599e-11 1.5460303294813736e-09 0.0000000000000000e+00  1.0010097537243171e-10 1.5014712390254674e-09 0.0000000000000000e+00  -1.3584305310032961e-10 -2.0691640767655188e-11 0.0000000000000000e+00  -3.7155422904709886e-09 -3.1895911815428644e-11 0.0000000000000000e+00  -2.9249253372507644e-09 -3.7333993399271920e-11 0.0000000000000000e+00  -1.8522629069709214e-09 -3.0026880107978755e-11 0.0000000000000000e+00  1.5498254025013733e-10 -2.3127538180891652e-11 0.0000000000000000e+00  -1.2993800976942168e-09 -2.0681962940800111e-11 0.0000000000000000e+00  3.4689821856845419e-10 -1.2274639097680543e-11 0.0000000000000000e+00  -8.2252062683568486e-10 -2.1392673747611462e-11 0.0000000000000000e+00  6.0132708107969678e-10 -1.2186167312375678e-11 0.0000000000000000e+00  7.2502785565246403e-10 -2.8534758278834307e-11 0.0000000000000000e+00  -4.2224975740169012e-10 -2.1895393572695589e-11 0.0000000000000000e+00  9.0497968336969273e-10 -5.8991188347077227e-12 0.0000000000000000e+00  1.8450288773727484e-10 -2.3622987563524289e-11 0.0000000000000000e+00  8.1718160036030153e-10 -7.4889812488184530e-12 0.0000000000000000e+00  9.2054017631039591e-10 -2.4621544550612401e-11 0.0000000000000000e+00  4.0676519141503214e-10 -2.4094625035780556e-11 0.0000000000000000e+00  -8.9379015939651390e-11 -2.2943641828167338e-11 0.0000000000000000e+00  9.0456920208237907e-10 -2.5055266203811357e-11 0.0000000000000000e+00  5.8364238285643314e-10 -2.4618187305348306e-11 0.0000000000000000e+00  8.5849747713502234e-10 -7.9999241127482746e-12 0.0000000000000000e+00  7.1741787270201164e-10 -4.1110775883500764e-11 0.0000000000000000e+00  8.0146818003099537e-10 -2.4522525851735466e-11 0.0000000000000000e+00  8.6896240208236247e-10 -2.7455547048660288e-11 0.0000000000000000e+00  -2.3784371262742881e-09 -1.7265329479314676e-11 0.0000000000000000e+00  4.7749627538672897e-10 -3.3046641188277673e-11 0.0000000000000000e+00  -3.3039546055889804e-09 2.5820466312820059e-10 0.0000000000000000e+00  3.6107496958622378e-11 5.5119964954418131e-10 0.0000000000000000e+00  -1.0512164988284527e-09 2.8053598565644691e-10 0.0000000000000000e+00  -1.5702601881045650e-09 2.6674675015982761e-10 0.0000000000000000e+00  2.6040886686902679e-10 -5.6515070787607379e-10 0.0000000000000000e+00  6.6494877555366340e-10 -4.5315656741211214e-10 0.0000000000000000e+00  5.4083326288070026e-11 3.1435917760347052e-10 0.0000000000000000e+00  -6.1383319196488750e-10 2.9341315568961972e-10 0.0000000000000000e+00  9.1614230141237689e-10 -4.2210628144565226e-10 0.0000000000000000e+00  3.0135508355866746e-10 3.2356821177469366e-10 0.0000000000000000e+00  7.7607056270400079e-10 -4.4263868533369326e-10 0.0000000000000000e+00  9.1625029671289665e-10 -4.1517840599022007e-10 0.0000000000000000e+00  5.0020124567345215e-10 3.3189569601422674e-10 0.0000000000000000e+00  -2.4838146719540464e-10 3.0454655703349486e-10 0.0000000000000000e+00  8.8421956020330205e-10 -4.9253011605171708e-10 0.0000000000000000e+00  6.5634764576339854e-10 3.3971635858830866e-10 0.0000000000000000e+00  -2.5544796879710505e-10 -4.2887076684382321e-10 0.0000000000000000e+00  -2.5706290584945949e-10 4.0351658714529902e-10 0.0000000000000000e+00  -4.0759574526226746e-09 -2.1092502766066799e-10 0.0000000000000000e+00  4.1991402426172166e-11 -6.5078488214498223e-10 0.0000000000000000e+00  7.62056132921