<?xml version="1.0"?>
<VTKFile type="UnstructuredGrid"  version="0.1"  >
<UnstructuredGrid>
<Piece  NumberOfPoints="1419" NumberOfCells="2698">
<Points>
<DataArray  type="Float64"  NumberOfComponents="3"  format="ascii">0 0 0  0 0.41 0  2.5 0 0  2.5 0.41 0  0.5999999986726809 0.1900000003952844 0  0.5999999986750549 0.2099999995816891 0  0.25 0.2 0  0.15 0.2 0  0.2489897948556636 0.21 0  0.2489897948556636 0.19 0  0.5999999986824497 0.1999999999886789 0  0 0.3807142857143437 0  0 0.3514285714286952 0  0 0.3221428571430699 0  0 0.29285714285744 0  0 0.2635714285718054 0  0 0.2342857142861561 0  0 0.2050000000005308 0  0 0.175714285714732 0  0 0.1464285714289574 0  0 0.1171428571431897 0  0 0.08785714285737878 0  0 0.05857142857161107 0  0 0.02928571428580012 0  0.03015443760436003 0 0  0.06140001986583606 0 0  0.09377624077125973 0 0  0.1273239957535082 0 0  0.1620856860351972 0 0  0.1981052433264291 0 0  0.235428184091502 0 0  0.2741016576309132 0 0  0.3141745521465447 0 0  0.3556974926295285 0 0  0.3987229542472677 0 0  0.4433053055141081 0 0  0.4895008759286886 0 0  0.5373680609405097 0 0  0.5869673343216626 0 0  0.6383613676634521 0 0  0.6916151138468254 0 0  0.7467958595648856 0 0  0.8039733463919316 0 0  0.8632198139502143 0 0  0.9246101326867038 0 0  0.9882218810934433 0 0  1.054135445558498 0 0  1.122434100542598 0 0  1.193204177141305 0 0  1.266535089879536 0 0  1.342519516046404 0 0  1.421253448503939 0 0  1.502836389106271 0 0  1.587371439758838 0 0  1.674965418777374 0 0  1.765729001825544 0 0  1.859776908880082 0 0  1.957227977487062 0 0  2.058205329869943 0 0  2.162836591189951 0 0  2.271253957290865 0 0  2.383594446803425 0 0  2.5 0.1024999999997612 0  2.5 0.2049999999994743 0  2.5 0.3074999999997183 0  2.383594446803656 0.41 0  2.271253957291315 0.41 0  2.162836591190598 0.41 0  2.058205329870775 0.41 0  1.957227977488067 0.41 0  1.859776908881246 0.41 0  1.765729001826854 0.41 0  1.674965418778818 0.41 0  1.58737143976041 0.41 0  1.502836389107956 0.41 0  1.421253448505726 0.41 0  1.342519516048286 0.41 0  1.266535089881505 0.41 0  1.193204177143353 0.41 0  1.122434100544716 0.41 0  1.05413544556068 0.41 0  0.9882218810956305 0.41 0  0.9246101326886647 0.41 0  0.8632198139519631 0.41 0  0.8039733463934788 0.41 0  0.7467958595662458 0.41 0  0.6916151138480078 0.41 0  0.6383613676644679 0.41 0  0.5869673343225223 0.41 0  0.5373680609412221 0.41 0  0.4895008759292634 0.41 0  0.4433053055145528 0.41 0  0.3987229542475914 0.41 0  0.3556974926297398 0.41 0  0.3141745521466497 0.41 0  0.2741016576310038 0.41 0  0.2354281840915826 0.41 0  0.1981052433265003 0.41 0  0.1620856860352591 0.41 0  0.1273239957535623 0.41 0  0.09377624077128965 0.41 0  0.06140001986584975 0.41 0  0.03015443760436654 0.41 0  0.2497468076502589 0.2050254481002335 0  0.2497468076502614 0.1949745518997913 0  0.2469965252529372 0.1829317073451959 0  0.2439893735792749 0.1762316384219906 0  0.2400332147834255 0.1700443375285386 0  0.2352133972704371 0.1645032867342007 0  0.2296339016332438 0.1597280261969788 0  0.2234150974217223 0.1558215752574715 0  0.2166911463437691 0.1528682099456123 0  0.2096071079204251 0.1509316448471593 0  0.2023158100364996 0.1500536585536553 0  0.194974551899914 0.1502531923497262 0  0.1877417105387872 0.1515259415822739 0  0.1807733240461124 0.153844448527136 0  0.1742197252835808 0.15715869474974 0  0.1682222986673531 0.1613971801805478 0  0.162910430003803 0.1664684656256651 0  0.1583987151779087 0.1722631454351573 0  0.1547844879126891 0.178656207771761 0  0.1521457199348551 0.1855097315605723 0  0.1505393388476355 0.1926758619366523 0  0.1505393388476328 0.2073241380633295 0  0.1521457199348437 0.2144902684393899 0  0.1547844879126531 0.221343792228163 0  0.1583987151778488 0.2277368545647528 0  0.1629104300036858 0.2335315343742052 0  0.1682222986671726 0.2386028198193036 0  0.1742197252833576 0.2428413052501257 0  0.1807733240458683 0.2461555514727623 0  0.1877417105384929 0.2484740584176516 0  0.1949745518995776 0.2497468076502398 0  0.202315810036185 0.2499463414463592 0  0.2096071079201568 0.2490683551528932 0  0.2166911463435495 0.2471317900544655 0  0.2234150974215506 0.2441784247426195 0  0.2296339016331197 0.2402719738031125 0  0.2352133972703547 0.2354967132658811 0  0.2400332147833751 0.2299556624715287 0  0.2439893735792577 0.2237683615780412 0  0.246996525252926 0.2170682926548348 0  0.2564580972045186 0.2099999988775675 0  0.263926399407696 0.2099999988542589 0  0.2713947017156462 0.2099999988833326 0  0.2788630040306816 0.2099999989145912 0  0.2863313063392318 0.2099999989383355 0  0.2937996086353321 0.2099999989631326 0  0.3012679109224071 0.2099999989876394 0  0.3087362131975492 0.2099999990107177 0  0.3162045154658302 0.2099999990333861 0  0.3236728177262345 0.2099999990522838 0  0.3311411199803862 0.2099999990731918 0  0.338609422228783 0.2099999990901404 0  0.3460777244718038 0.2099999991079773 0  0.3535460267115757 0.209999999124636 0  0.3610143289461152 0.2099999991401368 0  0.3684826311787162 0.2099999991554265 0  0.3759509334083168 0.2099999991686021 0  0.3834192356356869 0.2099999991832265 0  0.3908875378611038 0.2099999991951876 0  0.3983558400847324 0.2099999992085589 0  0.4058241423069646 0.2099999992199542 0  0.4132924445275379 0.2099999992318938 0  0.420760746747584 0.2099999992434791 0  0.4282290489652036 0.2099999992542964 0  0.4356973511822263 0.2099999992651775 0  0.4431656533977291 0.2099999992752269 0  0.450633955611802 0.209999999285867 0  0.4581022578243541 0.2099999992954841 0  0.4655705600349901 0.2099999993058889 0  0.47303886224363 0.2099999993151524 0  0.480507164449852 0.2099999993254656 0  0.4879754666531269 0.2099999993347065 0  0.4954437688534067 0.2099999993451384 0  0.502912071049632 0.2099999993550575 0  0.5103803732409203 0.2099999993660527 0  0.5178486754269248 0.2099999993762463 0  0.5253169776065402 0.2099999993881118 0  0.5327852797788367 0.209999999399606 0  0.5402535819419739 0.2099999994136927 0  0.547721884094561 0.2099999994274198 0  0.5551901862348407 0.2099999994435856 0  0.5626584883614779 0.2099999994619607 0  0.5701267904695408 0.2099999994811272 0  0.5775950925587958 0.209999999503698 0  0.5850633946255827 0.2099999995280491 0  0.5925316966671291 0.2099999995600909 0  0.5999999986766639 0.204999999782098 0  0.5999999986761603 0.1950000001956608 0  0.5925316966656925 0.1900000004182936 0  0.5850633946252947 0.1900000004513785 0  0.5775950925592953 0.1900000004757857 0  0.5701267904701323 0.1900000004986664 0  0.5626584883621989 0.190000000517428 0  0.5551901862357221 0.1900000005349544 0  0.5477218840956425 0.1900000005506468 0  0.5402535819429209 0.190000000563199 0  0.5327852797799528 0.190000000577004 0  0.5253169776078986 0.1900000005878255 0  0.5178486754282162 0.1900000006000628 0  0.5103803732420489 0.1900000006096315 0  0.5029120710504801 0.1900000006205572 0  0.4954437688543585 0.190000000629304 0  0.487975466654354 0.1900000006396622 0  0.4805071644510814 0.1900000006482788 0  0.4730388622448791 0.1900000006586386 0  0.4655705600362652 0.1900000006672926 0  0.4581022578255307 0.1900000006776861 0  0.4506339556130925 0.1900000006864737 0  0.4431656533990428 0.190000000697238 0  0.4356973511836287 0.1900000007066425 0  0.4282290489665364 0.1900000007177055 0  0.4207607467488407 0.1900000007282862 0  0.4132924445287257 0.1900000007398215 0  0.4058241423079837 0.1900000007513494 0  0.3983558400858114 0.1900000007627634 0  0.3908875378621213 0.1900000007758512 0  0.3834192356366768 0.1900000007883241 0  0.375950933409121 0.1900000008025395 0  0.3684826311794062 0.1900000008160179 0  0.3610143289469744 0.1900000008309172 0  0.3535460267125322 0.1900000008462767 0  0.3460777244728357 0.1900000008627724 0  0.3386094222297541 0.1900000008800826 0  0.3311411199815698 0.1900000008969168 0  0.3236728177277223 0.1900000009164549 0  0.3162045154674965 0.1900000009347207 0  0.3087362131995561 0.1900000009554904 0  0.3012679109239758 0.1900000009766206 0  0.2937996086362067 0.1900000009992943 0  0.2863313063381787 0.1900000010227629 0  0.2788630040270611 0.190000001047039 0  0.271394701709308 0.1900000010823358 0  0.2639263993994382 0.1900000011191559 0  0.2564580971932648 0.1900000011039927 0  0.2607803159392036 0.2000727136103538 0  0.5887803764361492 0.2001272386827149 0  0.5745072397155992 0.2002044434817187 0  0.5511891427268953 0.2001122609908378 0  0.2751288528791987 0.1999999999814457 0  0.5365194308671801 0.1999999999884615 0  0.2894621226342491 0.1998691686329168 0  0.5215828265229613 0.1999999999880894 0  0.3127789821397013 0.1998657885405568 0  0.3274069688630249 0.1999999999849008 0  0.5066462221509271 0.1999999999877984 0  0.3650630751963797 0.1998660178044941 0  0.4767730133523523 0.1999999999868903 0  0.341740238498609 0.199869168635885 0  0.3796850845287851 0.1999999999858268 0  0.46183640893545 0.1999999999865648 0  0.4917096177588351 0.1999999999872543 0  0.3946216889792663 0.1999999999857548 0  0.446899804510819 0.1999999999861807 0  0.4089549585649034 0.1998691686348621 0  0.4322718178746728 0.200127451242533 0  0.4201487172487128 0.1999966198910732 0  0.3528922718660635 0.2000185703372009 0  0.5633122432099029 0.1999814296374966 0  0.3006558814225847 0.1999966198871407 0  0.5815926490065707 0.1966545284637542 0  0.2677053790354618 0.1964246483069266 0  0.5290511286989399 0.1970915828470619 0  0.5439877330252129 0.1970915828400565 0  0.2825131259722199 0.2035478992041318 0  0.3199386666056168 0.2029084170247172 0  0.4842413155569253 0.1970915828640576 0  0.5141145243396775 0.1970915828533445 0  0.3722167823001444 0.2029084170603346 0  0.4693047111448307 0.197091582869329 0  0.3348752711130004 0.2029084170366937 0  0.3871533867545654 0.2029084170682929 0  0.4543681067237725 0.1970915828746393 0  0.499177919956775 0.1970915828588711 0  0.4020059619783447 0.2035478993104959 0  0.4394315022959577 0.1970915828802146 0  0.2550657453719872 0.2034088122162064 0  0.2548908497503865 0.1966940314575051 0  0.5946539498656783 0.2024
[...]
<PointData  Vectors="f_44-1"> 
<DataArray  type="Float64"  Name="f_44-1"  NumberOfComponents="3" format="ascii">0.0000000000000000e+00 0.0000000000000000e+00 0.0000000000000000e+00  0.0000000000000000e+00 0.0000000000000000e+00 0.0000000000000000e+00  0.0000000000000000e+00 0.0000000000000000e+00 0.0000000000000000e+00  0.0000000000000000e+00 0.0000000000000000e+00 0.0000000000000000e+00  -1.1280652962127941e-09 3.0531297662805535e-10 0.0000000000000000e+00  -1.1260081310819459e-09 -3.2315485447348251e-10 0.0000000000000000e+00  0.0000000000000000e+00 0.0000000000000000e+00 0.0000000000000000e+00  0.0000000000000000e+00 0.0000000000000000e+00 0.0000000000000000e+00  0.0000000000000000e+00 0.0000000000000000e+00 0.0000000000000000e+00  0.0000000000000000e+00 0.0000000000000000e+00 0.0000000000000000e+00  -1.1213253575727879e-09 -8.8288212976929754e-12 0.0000000000000000e+00  0.0000000000000000e+00 0.0000000000000000e+00 0.0000000000000000e+00  0.0000000000000000e+00 0.0000000000000000e+00 0.0000000000000000e+00  0.0000000000000000e+00 0.0000000000000000e+00 0.0000000000000000e+00  0.0000000000000000e+00 0.0000000000000000e+00 0.0000000000000000e+00  0.0000000000000000e+00 0.0000000000000000e+00 0.0000000000000000e+00  0.0000000000000000e+00 0.0000000000000000e+00 0.0000000000000000e+00  0.0000000000000000e+00 0.0000000000000000e+00 0.0000000000000000e+00  0.0000000000000000e+00 0.0000000000000000e+00 0.0000000000000000e+00  0.0000000000000000e+00 0.0000000000000000e+00 0.0000000000000000e+00  0.0000000000000000e+00 0.0000000000000000e+00 0.0000000000000000e+00  0.0000000000000000e+00 0.0000000000000000e+00 0.0000000000000000e+00  0.0000000000000000e+00 0.0000000000000000e+00 0.0000000000000000e+00  0.0000000000000000e+00 0.0000000000000000e+00 0.0000000000000000e+00  0.0000000000000000e+00 0.0000000000000000e+00 0.0000000000000000e+00  0.0000000000000000e+00 0.0000000000000000e+00 0.0000000000000000e+00  0.0000000000000000e+00 0.0000000000000000e+00 0.0000000000000000e+00  0.0000000000000000e+00 0.0000000000000000e+00 0.0000000000000000e+00  0.0000000000000000e+00 0.0000000000000000e+00 0.0000000000000000e+00  0.0000000000000000e+00 0.0000000000000000e+00 0.0000000000000000e+00  0.0000000000000000e+00 0.0000000000000000e+00 0.0000000000000000e+00  0.0000000000000000e+00 0.0000000000000000e+00 0.0000000000000000e+00  0.0000000000000000e+00 0.0000000000000000e+00 0.0000000000000000e+00  0.0000000000000000e+00 0.0000000000000000e+00 0.0000000000000000e+00  0.0000000000000000e+00 0.0000000000000000e+00 0.0000000000000000e+00  0.0000000000000000e+00 0.0000000000000000e+00 0.0000000000000000e+00  0.0000000000000000e+00 0.0000000000000000e+00 0.0000000000000000e+00  0.0000000000000000e+00 0.0000000000000000e+00 0.0000000000000000e+00  0.0000000000000000e+00 0.0000000000000000e+00 0.0000000000000000e+00  0.0000000000000000e+00 0.0000000000000000e+00 0.0000000000000000e+00  0.0000000000000000e+00 0.0000000000000000e+00 0.0000000000000000e+00  0.0000000000000000e+00 0.0000000000000000e+00 0.0000000000000000e+00  0.0000000000000000e+00 0.0000000000000000e+00 0.0000000000000000e+00  0.0000000000000000e+00 0.0000000000000000e+00 0.0000000000000000e+00  0.0000000000000000e+00 0.0000000000000000e+00 0.0000000000000000e+00  0.0000000000000000e+00 0.0000000000000000e+00 0.0000000000000000e+00  0.0000000000000000e+00 0.0000000000000000e+00 0.0000000000000000e+00  0.0000000000000000e+00 0.0000000000000000e+00 0.0000000000000000e+00  0.0000000000000000e+00 0.0000000000000000e+00 0.0000000000000000e+00  0.0000000000000000e+00 0.0000000000000000e+00 0.0000000000000000e+00  0.0000000000000000e+00 0.0000000000000000e+00 0.0000000000000000e+00  0.0000000000000000e+00 0.0000000000000000e+00 0.0000000000000000e+00  0.0000000000000000e+00 0.0000000000000000e+00 0.0000000000000000e+00  0.0000000000000000e+00 0.0000000000000000e+00 0.0000000000000000e+00  0.0000000000000000e+00 0.0000000000000000e+00 0.0000000000000000e+00  0.0000000000000000e+00 0.0000000000000000e+00 0.0000000000000000e+00  0.0000000000000000e+00 0.0000000000000000e+00 0.0000000000000000e+00  0.0000000000000000e+00 0.0000000000000000e+00 0.0000000000000000e+00  0.0000000000000000e+00 0.0000000000000000e+00 0.0000000000000000e+00  0.0000000000000000e+00 0.0000000000000000e+00 0.0000000000000000e+00  0.0000000000000000e+00 0.0000000000000000e+00 0.0000000000000000e+00  0.0000000000000000e+00 0.0000000000000000e+00 0.0000000000000000e+00  0.0000000000000000e+00 0.0000000000000000e+00 0.0000000000000000e+00  0.0000000000000000e+00 0.0000000000000000e+00 0.0000000000000000e+00  0.0000000000000000e+00 0.0000000000000000e+00 0.0000000000000000e+00  0.0000000000000000e+00 0.0000000000000000e+00 0.0000000000000000e+00  0.0000000000000000e+00 0.0000000000000000e+00 0.0000000000000000e+00  0.0000000000000000e+00 0.0000000000000000e+00 0.0000000000000000e+00  0.0000000000000000e+00 0.0000000000000000e+00 0.0000000000000000e+00  0.0000000000000000e+00 0.0000000000000000e+00 0.0000000000000000e+00  0.0000000000000000e+00 0.0000000000000000e+00 0.0000000000000000e+00  0.0000000000000000e+00 0.0000000000000000e+00 0.0000000000000000e+00  0.0000000000000000e+00 0.0000000000000000e+00 0.0000000000000000e+00  0.0000000000000000e+00 0.0000000000000000e+00 0.0000000000000000e+00  0.0000000000000000e+00 0.0000000000000000e+00 0.0000000000000000e+00  0.0000000000000000e+00 0.0000000000000000e+00 0.0000000000000000e+00  0.0000000000000000e+00 0.0000000000000000e+00 0.0000000000000000e+00  0.0000000000000000e+00 0.0000000000000000e+00 0.0000000000000000e+00  0.0000000000000000e+00 0.0000000000000000e+00 0.0000000000000000e+00  0.0000000000000000e+00 0.0000000000000000e+00 0.0000000000000000e+00  0.0000000000000000e+00 0.0000000000000000e+00 0.0000000000000000e+00  0.0000000000000000e+00 0.0000000000000000e+00 0.0000000000000000e+00  0.0000000000000000e+00 0.0000000000000000e+00 0.0000000000000000e+00  0.0000000000000000e+00 0.0000000000000000e+00 0.0000000000000000e+00  0.0000000000000000e+00 0.0000000000000000e+00 0.0000000000000000e+00  0.0000000000000000e+00 0.0000000000000000e+00 0.0000000000000000e+00  0.0000000000000000e+00 0.0000000000000000e+00 0.0000000000000000e+00  0.0000000000000000e+00 0.0000000000000000e+00 0.0000000000000000e+00  0.0000000000000000e+00 0.0000000000000000e+00 0.0000000000000000e+00  0.0000000000000000e+00 0.0000000000000000e+00 0.0000000000000000e+00  0.0000000000000000e+00 0.0000000000000000e+00 0.0000000000000000e+00  0.0000000000000000e+00 0.0000000000000000e+00 0.0000000000000000e+00  0.0000000000000000e+00 0.0000000000000000e+00 0.0000000000000000e+00  0.0000000000000000e+00 0.0000000000000000e+00 0.0000000000000000e+00  0.0000000000000000e+00 0.0000000000000000e+00 0.0000000000000000e+00  0.0000000000000000e+00 0.0000000000000000e+00 0.0000000000000000e+00  0.0000000000000000e+00 0.0000000000000000e+00 0.0000000000000000e+00  0.0000000000000000e+00 0.0000000000000000e+00 0.0000000000000000e+00  0.0000000000000000e+00 0.0000000000000000e+00 0.0000000000000000e+00  0.0000000000000000e+00 0.0000000000000000e+00 0.0000000000000000e+00  0.0000000000000000e+00 0.0000000000000000e+00 0.0000000000000000e+00  0.0000000000000000e+00 0.0000000000000000e+00 0.0000000000000000e+00  0.0000000000000000e+00 0.0000000000000000e+00 0.0000000000000000e+00  0.0000000000000000e+00 0.0000000000000000e+00 0.0000000000000000e+00  0.0000000000000000e+00 0.0000000000000000e+00 0.0000000000000000e+00  0.0000000000000000e+00 0.0000000000000000e+00 0.0000000000000000e+00  0.0000000000000000e+00 0.0000000000000000e+00 0.0000000000000000e+00  0.0000000000000000e+00 0.0000000000000000e+00 0.0000000000000000e+00  0.0000000000000000e+00 0.0000000000000000e+00 0.0000000000000000e+00  0.0000000000000000e+00 0.0000000000000000e+00 0.0000000000000000e+00  0.0000000000000000e+00 0.0000000000000000e+00 0.0000000000000000e+00  0.0000000000000000e+00 0.0000000000000000e+00 0.0000000000000000e+00  0.0000000000000000e+00 0.0000000000000000e+00 0.0000000000000000e+00  0.0000000000000000e+00 0.0000000000000000e+00 0.0000000000000000e+00  0.0000000000000000e+00 0.0000000000000000e+00 0.0000000000000000e+00  0.0000000000000000e+00 0.0000000000000000e+00 0.0000000000000000e+00  0.0000000000000000e+00 0.0000000000000000e+00 0.0000000000000000e+00  0.0000000000000000e+00 0.0000000000000000e+00 0.0000000000000000e+00  0.0000000000000000e+00 0.0000000000000000e+00 0.0000000000000000e+00  0.0000000000000000e+00 0.0000000000000000e+00 0.0000000000000000e+00  0.0000000000000000e+00 0.0000000000000000e+00 0.0000000000000000e+00  0.0000000000000000e+00 0.0000000000000000e+00 0.0000000000000000e+00  0.0000000000000000e+00 0.0000000000000000e+00 0.0000000000000000e+00  0.0000000000000000e+00 0.0000000000000000e+00 0.0000000000000000e+00  0.0000000000000000e+00 0.0000000000000000e+00 0.0000000000000000e+00  0.0000000000000000e+00 0.0000000000000000e+00 0.0000000000000000e+00  0.0000000000000000e+00 0.0000000000000000e+00 0.0000000000000000e+00  0.0000000000000000e+00 0.0000000000000000e+00 0.0000000000000000e+00  0.0000000000000000e+00 0.0000000000000000e+00 0.0000000000000000e+00  0.0000000000000000e+00 0.0000000000000000e+00 0.0000000000000000e+00  0.0000000000000000e+00 0.0000000000000000e+00 0.0000000000000000e+00  0.0000000000000000e+00 0.0000000000000000e+00 0.0000000000000000e+00  0.0000000000000000e+00 0.0000000000000000e+00 0.0000000000000000e+00  0.0000000000000000e+00 0.0000000000000000e+00 0.0000000000000000e+00  0.0000000000000000e+00 0.0000000000000000e+00 0.0000000000000000e+00  0.0000000000000000e+00 0.0000000000000000e+00 0.0000000000000000e+00  0.0000000000000000e+00 0.0000000000000000e+00 0.0000000000000000e+00  0.0000000000000000e+00 0.0000000000000000e+00 0.0000000000000000e+00  0.0000000000000000e+00 0.0000000000000000e+00 0.0000000000000000e+00  0.0000000000000000e+00 0.0000000000000000e+00 0.0000000000000000e+00  0.0000000000000000e+00 0.0000000000000000e+00 0.0000000000000000e+00  0.0000000000000000e+00 0.0000000000000000e+00 0.0000000000000000e+00  0.0000000000000000e+00 0.0000000000000000e+00 0.0000000000000000e+00  6.6785739145435553e-11 -7.1537875821449407e-10 0.0000000000000000e+00  4.4993232104138300e-11 -7.4740398235763563e-10 0.0000000000000000e+00  9.3918600780375118e-11 -7.3898779014627658e-10 0.0000000000000000e+00  1.5052308121216503e-10 -7.2747856448281584e-10 0.0000000000000000e+00  2.0483618664155073e-10 -7.1843052135969758e-10 0.0000000000000000e+00  2.5180160664171732e-10 -7.0780991160488701e-10 0.0000000000000000e+00  2.9285341937569056e-10 -6.9706634419578730e-10 0.0000000000000000e+00  3.2647956510086849e-10 -6.8557984558162973e-10 0.0000000000000000e+00  3.5478047477390754e-10 -6.7457961013396353e-10 0.0000000000000000e+00  3.7734490212062611e-10 -6.6507370960434198e-10 0.0000000000000000e+00  3.9490877889827952e-10 -6.5455178168877313e-10 0.0000000000000000e+00  4.0783874520305971e-10 -6.4595768884238912e-10 0.0000000000000000e+00  4.1641979935703668e-10 -6.3677946929432887e-10 0.0000000000000000e+00  4.2179702280248998e-10 -6.2855912362537707e-10 0.0000000000000000e+00  4.2319348843236453e-10 -6.2032994086300033e-10 0.0000000000000000e+00  4.2230466214948611e-10 -6.1254559259871530e-10 0.0000000000000000e+00  4.1879872886138741e-10 -6.0573248453897475e-10 0.0000000000000000e+00  4.1311447870886850e-10 -5.9811388849312205e-10 0.0000000000000000e+00  4.0552120031153124e-10 -5.9185718872240781e-10 0.0000000000000000e+00  3.9614018939072881e-10 -5.8475783522224330e-10 0.0000000000000000e+00  3.8527617366749026e-10 -5.7868436934256423e-10 0.0000000000000000e+00  3.7281415018795033e-10 -5.7217803918596643e-10 0.0000000000000000e+00  3.5938970077974418e-10 -5.6602815182413300e-10 0.0000000000000000e+00  3.4398768653822568e-10 -5.5982109037274757e-10 0.0000000000000000e+00  3.2758495336972381e-10 -5.5369945698438004e-10 0.0000000000000000e+00  3.0968853652643230e-10 -5.4792863306188988e-10 0.0000000000000000e+00  2.9030354538848557e-10 -5.4167507262459290e-10 0.0000000000000000e+00  2.6935390666542268e-10 -5.3590603323256792e-10 0.0000000000000000e+00  2.4651469458962902e-10 -5.2950086964019807e-10 0.0000000000000000e+00  2.2171858457448300e-10 -5.2364884277098004e-10 0.0000000000000000e+00  1.9455964454624203e-10 -5.1696870077402208e-10 0.0000000000000000e+00  1.6469305590652987e-10 -5.1080085599030768e-10 0.0000000000000000e+00  1.3191910338461523e-10 -5.0362065462492817e-10 0.0000000000000000e+00  9.5436515979745656e-11 -4.9660429811008694e-10 0.0000000000000000e+00  5.4566742418757230e-11 -4.8861517379453638e-10 0.0000000000000000e+00  9.0026796700593499e-12 -4.8102402351740593e-10 0.0000000000000000e+00  -4.2165961824357609e-11 -4.7197552208834986e-10 0.0000000000000000e+00  -9.9678319468528183e-11 -4.6302448047351005e-10 0.0000000000000000e+00  -1.6493063348259474e-10 -4.5189828231303574e-10 0.0000000000000000e+00  -2.3889668654088082e-10 -4.4093963961292040e-10 0.0000000000000000e+00  -3.2285200848554137e-10 -4.2794507588591285e-10 0.0000000000000000e+00  -4.1764355039539689e-10 -4.1342277628614763e-10 0.0000000000000000e+00  -5.2683745360930554e-10 -3.9799913563240723e-10 0.0000000000000000e+00  -6.5008422881690789e-10 -3.8035929302867995e-10 0.0000000000000000e+00  -7.8967633787401072e-10 -3.6166357346843872e-10 0.0000000000000000e+00  -9.4665981562268587e-10 -3.3780333209913294e-10 0.0000000000000000e+00  -1.1254182589431621e-09 -1.6853600715258584e-10 0.0000000000000000e+00  -1.1259446681595253e-09 1.5116929652226851e-10 0.0000000000000000e+00  -9.4798011370702309e-10 3.2123539309480523e-10 0.0000000000000000e+00  -7.9014442932384128e-10 3.4598827794361447e-10 0.0000000000000000e+00  -6.4995758001490752e-10 3.6484940939661635e-10 0.0000000000000000e+00  -5.2657309702163956e-10 3.8283213775376264e-10 0.0000000000000000e+00  -4.1729802074851384e-10 3.9801806444073569e-10 0.0000000000000000e+00  -3.2235145612782225e-10 4.1193565756388514e-10 0.0000000000000000e+00  -2.3826672109587624e-10 4.2461291071422117e-10 0.0000000000000000e+00  -1.6442749665734916e-10 4.3465384357125876e-10 0.0000000000000000e+00  -9.9121285953005099e-11 4.4558770014136031e-10 0.0000000000000000e+00  -4.1445346221687937e-11 4.5403266988241316e-10 0.0000000000000000e+00  9.6433337553574925e-12 4.6339918762659045e-10 0.0000000000000000e+00  5.5046838253181520e-11 4.7055793192759465e-10 0.0000000000000000e+00  9.5668615850734166e-11 4.7849841777518788e-10 0.0000000000000000e+00  1.3216004599274139e-10 4.8467283238777020e-10 0.0000000000000000e+00  1.6510483176700359e-10 4.9177344483881403e-10 0.0000000000000000e+00  1.9495710371354841e-10 4.9751022935439108e-10 0.0000000000000000e+00  2.2209877376499162e-10 5.0421589267698232e-10 0.0000000000000000e+00  2.4687222522835281e-10 5.0966864041992124e-10 0.0000000000000000e+00  2.6961945467135106e-10 5.1603528608884410e-10 0.0000000000000000e+00  2.9059800419494793e-10 5.2129424296930433e-10 0.0000000000000000e+00  3.0997264757951674e-10 5.2759444259432509e-10 0.0000000000000000e+00  3.2787723196741308e-10 5.3301011580389434e-10 0.0000000000000000e+00  3.4422134676754566e-10 5.3917833221581410e-10 0.0000000000000000e+00  3.5957208057119581e-10 5.4525481164578055e-10 0.0000000000000000e+00  3.7297647683358950e-10 5.5136173554536682e-10 0.0000000000000000e+00  3.8535937618514045e-10 5.5764291818468218e-10 0.0000000000000000e+00  3.9625897505956457e-10 5.6372632446573877e-10 0.0000000000000000e+00  4.0561656685087710e-10 5.7067197753038351e-10 0.0000000000000000e+00  4.1322020386129043e-10 5.7721879587496974e-10 0.0000000000000000e+00  4.1884396020412107e-10 5.8466012025691242e-10 0.0000000000000000e+00  4.2234255882305800e-10 5.9164207936477864e-10 0.0000000000000000e+00  4.2335340713749980e-10 5.9928230491336012e-10 0.0000000000000000e+00  4.2206757927258119e-10 6.0741845323273462e-10 0.0000000000000000e+00  4.1679862941262845e-10 6.1552653214097689e-10 0.0000000000000000e+00  4.0830276302178608e-10 6.2428003149440628e-10 0.0000000000000000e+00  3.9560370426212235e-10 6.3264882067602721e-10 0.0000000000000000e+00  3.7831248284435002e-10 6.4218819811903190e-10 0.0000000000000000e+00  3.5594300929549067e-10 6.5093265564024574e-10 0.0000000000000000e+00  3.2779021443937435e-10 6.6053941252155125e-10 0.0000000000000000e+00  2.9372877665415086e-10 6.7049246404972255e-10 0.0000000000000000e+00  2.5199146712082966e-10 6.8001182392149408e-10 0.0000000000000000e+00  2.0346036983062252e-10 6.9004146310072108e-10 0.0000000000000000e+00  1.4718165354304239e-10 7.0018154687056464e-10 0.0000000000000000e+00  8.8619939035344223e-11 7.1564185608027525e-10 0.0000000000000000e+00  3.8705269620553820e-11 7.3059456793120603e-10 0.0000000000000000e+00  5.9272158444515886e-11 7.0474215321762086e-10 0.0000000000000000e+00  -4.5420015841817307e-11 -1.2096834918092116e-11 0.0000000000000000e+00  -8.6042752136420034e-10 -1.2056993606146027e-11 0.0000000000000000e+00  -5.9128110381114626e-10 -1.5384671525471526e-11 0.0000000000000000e+00  -2.7200877744357512e-10 -1.2799792505677658e-11 0.0000000000000000e+00  1.2148794989901283e-10 -1.3095008061484772e-11 0.0000000000000000e+00  -1.2725439258749560e-10 -8.6502689612691733e-12 0.0000000000000000e+00  2.2898618378097045e-10 -5.3268303348317807e-12 0.0000000000000000e+00  -1.2166954623284573e-11 -8.9041683409262991e-12 0.0000000000000000e+00  3.4727487411470373e-10 -3.1197379534976535e-12 0.0000000000000000e+00  3.9123264040467638e-10 -1.1129047252942405e-11 0.0000000000000000e+00  7.8740659573806612e-11 -9.0855712903460029e-12 0.0000000000000000e+00  4.2658700250254535e-10 -2.3203209194909921e-12 0.0000000000000000e+00  2.1137054615233056e-10 -9.7240107647711774e-12 0.0000000000000000e+00  4.1586519095977033e-10 -2.5071643110835264e-12 0.0000000000000000e+00  4.1959443881621322e-10 -1.0501995418100697e-11 0.0000000000000000e+00  2.6106613134044637e-10 -9.9384538144849609e-12 0.0000000000000000e+00  1.5170979787720104e-10 -9.4652774575933984e-12 0.0000000000000000e+00  4.0428598542542453e-10 -1.0585217322869546e-11 0.0000000000000000e+00  3.0311406376324402e-10 -1.0183966161955032e-11 0.0000000000000000e+00  3.8333307931616604e-10 -3.1138665022324102e-12 0.0000000000000000e+00  3.3823799807474658e-10 -1.7336755489456739e-11 0.0000000000000000e+00  3.6353576202149133e-10 -1.0217626461999993e-11 0.0000000000000000e+00  4.2513683092107542e-10 -1.1715082269440448e-11 0.0000000000000000e+00  -4.2199376841647511e-10 -6.9428390936603672e-12 0.0000000000000000e+00  2.9396462054592973e-10 -1.3286946654938113e-11 0.0000000000000000e+00  -7.1682974204933891e-10 1.1357122925700955e-10 0.0000000000000000e+00  5.0993844264198902e-11 2.5943257822187055e-10 0.0000000000000000e+00  -6.6405741816186100e-11 1.2454724062549902e-10 0.0000000000000000e+00  -1.9665035093962191e-10 1.1897290222847397e-10 0.0000000000000000e+00  1.8114882559281222e-10 -2.6674400699028135e-10 0.0000000000000000e+00  3.7093820015335133e-10 -2.0328776923408545e-10 0.0000000000000000e+00  1.8282725282091443e-10 1.3698313289868097e-10 0.0000000000000000e+00  3.5709757660784651e-11 1.2939929150938607e-10 0.0000000000000000e+00  4.2403900595951434e-10 -1.8471036521338566e-10 0.0000000000000000e+00  2.3717125465533165e-10 1.4040531836498565e-10 0.0000000000000000e+00  4.0572695317485714e-10 -1.9697595884410600e-10 0.0000000000000000e+00  4.1260801744437432e-10 -1.8056208217480171e-10 0.0000000000000000e+00  2.8279493001457487e-10 1.4365927691668282e-10 0.0000000000000000e+00  1.1697444096160216e-10 1.3343067076515950e-10 0.0000000000000000e+00  3.9383318256435190e-10 -2.1323419500681989e-10 0.0000000000000000e+00  3.2161108220916361e-10 1.4693171634646265e-10 0.0000000000000000e+00  -1.1244341165505624e-10 -2.0296293870665514e-10 0.0000000000000000e+00  -1.1351802372220027e-10 1.8874240914504705e-10 0.0000000000000000e+00  -9.9324195829968271e-10 -8.7040758764411138e-11 0.0000000000000000e+00  5.3579424561242182e-11 -3.1215743996339494e-10 0.0000000000000000e+00  3.5100396182224558e-10 1.87