<?xml version="1.0"?>
<VTKFile type="UnstructuredGrid"  version="0.1"  >
<UnstructuredGrid>
<Piece  NumberOfPoints="1419" NumberOfCells="2698">
<Points>
<DataArray  type="Float64"  NumberOfComponents="3"  format="ascii">0 0 0  0 0.41 0  2.5 0 0  2.5 0.41 0  0.5999999455496359 0.1900000065382299 0  0.5999999456178394 0.2099999929180327 0  0.25 0.2 0  0.15 0.2 0  0.2489897948556636 0.21 0  0.2489897948556636 0.19 0  0.5999999454841867 0.1999999997298747 0  0 0.3807142857143437 0  0 0.3514285714286952 0  0 0.3221428571430699 0  0 0.29285714285744 0  0 0.2635714285718054 0  0 0.2342857142861561 0  0 0.2050000000005308 0  0 0.175714285714732 0  0 0.1464285714289574 0  0 0.1171428571431897 0  0 0.08785714285737878 0  0 0.05857142857161107 0  0 0.02928571428580012 0  0.03015443760436003 0 0  0.06140001986583606 0 0  0.09377624077125973 0 0  0.1273239957535082 0 0  0.1620856860351972 0 0  0.1981052433264291 0 0  0.235428184091502 0 0  0.2741016576309132 0 0  0.3141745521465447 0 0  0.3556974926295285 0 0  0.3987229542472677 0 0  0.4433053055141081 0 0  0.4895008759286886 0 0  0.5373680609405097 0 0  0.5869673343216626 0 0  0.6383613676634521 0 0  0.6916151138468254 0 0  0.7467958595648856 0 0  0.8039733463919316 0 0  0.8632198139502143 0 0  0.9246101326867038 0 0  0.9882218810934433 0 0  1.054135445558498 0 0  1.122434100542598 0 0  1.193204177141305 0 0  1.266535089879536 0 0  1.342519516046404 0 0  1.421253448503939 0 0  1.502836389106271 0 0  1.587371439758838 0 0  1.674965418777374 0 0  1.765729001825544 0 0  1.859776908880082 0 0  1.957227977487062 0 0  2.058205329869943 0 0  2.162836591189951 0 0  2.271253957290865 0 0  2.383594446803425 0 0  2.5 0.1024999999997612 0  2.5 0.2049999999994743 0  2.5 0.3074999999997183 0  2.383594446803656 0.41 0  2.271253957291315 0.41 0  2.162836591190598 0.41 0  2.058205329870775 0.41 0  1.957227977488067 0.41 0  1.859776908881246 0.41 0  1.765729001826854 0.41 0  1.674965418778818 0.41 0  1.58737143976041 0.41 0  1.502836389107956 0.41 0  1.421253448505726 0.41 0  1.342519516048286 0.41 0  1.266535089881505 0.41 0  1.193204177143353 0.41 0  1.122434100544716 0.41 0  1.05413544556068 0.41 0  0.9882218810956305 0.41 0  0.9246101326886647 0.41 0  0.8632198139519631 0.41 0  0.8039733463934788 0.41 0  0.7467958595662458 0.41 0  0.6916151138480078 0.41 0  0.6383613676644679 0.41 0  0.5869673343225223 0.41 0  0.5373680609412221 0.41 0  0.4895008759292634 0.41 0  0.4433053055145528 0.41 0  0.3987229542475914 0.41 0  0.3556974926297398 0.41 0  0.3141745521466497 0.41 0  0.2741016576310038 0.41 0  0.2354281840915826 0.41 0  0.1981052433265003 0.41 0  0.1620856860352591 0.41 0  0.1273239957535623 0.41 0  0.09377624077128965 0.41 0  0.06140001986584975 0.41 0  0.03015443760436654 0.41 0  0.2497468076502589 0.2050254481002335 0  0.2497468076502614 0.1949745518997913 0  0.2469965252529372 0.1829317073451959 0  0.2439893735792749 0.1762316384219906 0  0.2400332147834255 0.1700443375285386 0  0.2352133972704371 0.1645032867342007 0  0.2296339016332438 0.1597280261969788 0  0.2234150974217223 0.1558215752574715 0  0.2166911463437691 0.1528682099456123 0  0.2096071079204251 0.1509316448471593 0  0.2023158100364996 0.1500536585536553 0  0.194974551899914 0.1502531923497262 0  0.1877417105387872 0.1515259415822739 0  0.1807733240461124 0.153844448527136 0  0.1742197252835808 0.15715869474974 0  0.1682222986673531 0.1613971801805478 0  0.162910430003803 0.1664684656256651 0  0.1583987151779087 0.1722631454351573 0  0.1547844879126891 0.178656207771761 0  0.1521457199348551 0.1855097315605723 0  0.1505393388476355 0.1926758619366523 0  0.1505393388476328 0.2073241380633295 0  0.1521457199348437 0.2144902684393899 0  0.1547844879126531 0.221343792228163 0  0.1583987151778488 0.2277368545647528 0  0.1629104300036858 0.2335315343742052 0  0.1682222986671726 0.2386028198193036 0  0.1742197252833576 0.2428413052501257 0  0.1807733240458683 0.2461555514727623 0  0.1877417105384929 0.2484740584176516 0  0.1949745518995776 0.2497468076502398 0  0.202315810036185 0.2499463414463592 0  0.2096071079201568 0.2490683551528932 0  0.2166911463435495 0.2471317900544655 0  0.2234150974215506 0.2441784247426195 0  0.2296339016331197 0.2402719738031125 0  0.2352133972703547 0.2354967132658811 0  0.2400332147833751 0.2299556624715287 0  0.2439893735792577 0.2237683615780412 0  0.246996525252926 0.2170682926548348 0  0.2564580979202045 0.2099999865551189 0  0.2639263993025136 0.2099999860814771 0  0.271394702038863 0.2099999862158056 0  0.2788630049587558 0.2099999863389697 0  0.2863313078868043 0.2099999863967011 0  0.2937996107396453 0.2099999864648928 0  0.3012679135334825 0.2099999865481018 0  0.3087362162559377 0.2099999866473685 0  0.3162045189186447 0.2099999867609967 0  0.3236728215149089 0.2099999868704683 0  0.3311411240433805 0.2099999870042271 0  0.3386094265027999 0.2099999871235856 0  0.3460777288872842 0.2099999872574143 0  0.3535460312016463 0.2099999873863997 0  0.3610143334300203 0.2099999875168671 0  0.3684826355849671 0.2099999876477292 0  0.3759509376559362 0.2099999877662717 0  0.3834192396420422 0.2099999879030032 0  0.3908875415417368 0.2099999880201668 0  0.3983558433512703 0.2099999881585834 0  0.4058241450709575 0.2099999882822867 0  0.4132924466931996 0.2099999884208443 0  0.420760748225457 0.2099999885566175 0  0.4282290496467456 0.209999988699894 0  0.4356973509715465 0.2099999888458363 0  0.44316565218718 0.2099999889889173 0  0.4506339532926881 0.209999989146787 0  0.4581022542862715 0.209999989296401 0  0.4655705551592884 0.2099999894648033 0  0.4730388559130188 0.2099999896197301 0  0.480507156539645 0.2099999897977171 0  0.4879754570348175 0.2099999899607687 0  0.4954437573999988 0.2099999901472795 0  0.5029120576227962 0.2099999903251478 0  0.5103803576976543 0.2099999905212851 0  0.5178486576269808 0.2099999907010092 0  0.5253169574035067 0.2099999909043685 0  0.5327852570235069 0.2099999910932302 0  0.5402535564778227 0.2099999913104511 0  0.5477218557627868 0.2099999915094609 0  0.5551901548738725 0.2099999917266884 0  0.5626584538116344 0.209999991948019 0  0.5701267525484245 0.2099999921660593 0  0.577595051098674 0.2099999923952234 0  0.5850633494511847 0.2099999926206111 0  0.5925316476346189 0.2099999928914451 0  0.5999999454767941 0.2049999962845091 0  0.5999999454509034 0.1950000031763304 0  0.5925316475761924 0.1900000066148071 0  0.5850633494047514 0.1900000069271353 0  0.5775950510645117 0.1900000071828849 0  0.570126752523473 0.1900000074393561 0  0.5626584537956034 0.1900000076722455 0  0.5551901548672664 0.1900000078976966 0  0.5477218557635607 0.1900000081185794 0  0.5402535564817994 0.1900000083061947 0  0.5327852570318087 0.1900000085222087 0  0.5253169574167071 0.1900000086988175 0  0.5178486576411857 0.1900000089055947 0  0.5103803577105704 0.1900000090719713 0  0.5029120576314841 0.1900000092651725 0  0.4954437574087577 0.1900000094208922 0  0.4879754570469402 0.1900000096046088 0  0.48050715655069 0.1900000097550799 0  0.4730388559228694 0.1900000099332367 0  0.4655705551678923 0.1900000100779796 0  0.4581022542912693 0.1900000102466571 0  0.4506339532978325 0.1900000103839244 0  0.443165652191112 0.190000010545912 0  0.4356973509748009 0.190000010681403 0  0.4282290496489266 0.1900000108328528 0  0.4207607482253302 0.1900000109758484 0  0.4132924466922842 0.1900000111159034 0  0.405824145068469 0.1900000112532934 0  0.3983558433505757 0.1900000113820909 0  0.3908875415428379 0.1900000115209607 0  0.3834192396458539 0.1900000116462115 0  0.3759509376622182 0.1900000117789815 0  0.3684826355956446 0.1900000118961175 0  0.3610143334469804 0.1900000120151708 0  0.3535460312238782 0.190000012130543 0  0.3460777289134168 0.1900000122393299 0  0.338609426528813 0.1900000123474913 0  0.3311411240667617 0.1900000124443985 0  0.3236728215299634 0.1900000125527296 0  0.3162045189210077 0.1900000126504173 0  0.3087362162399294 0.1900000127610084 0  0.3012679134936939 0.1900000128744882 0  0.2937996106755449 0.1900000129965686 0  0.2863313077985789 0.1900000131246777 0  0.2788630048515853 0.1900000132644196 0  0.2713947019267406 0.1900000134942864 0  0.263926399203266 0.1900000137404366 0  0.2564580978116501 0.1900000133244306 0  0.2607803145065067 0.2000727134637735 0  0.5887803293309337 0.2001272383776711 0  0.5745071997625679 0.200204443146006 0  0.5511891130455129 0.2001122607318777 0  0.2751288534298106 0.1999999998284213 0  0.5365194068206418 0.1999999998093579 0  0.2894621243968197 0.1998691685554243 0  0.5215828075872515 0.1999999998027779 0  0.3127789854331082 0.1998657884190711 0  0.3274069728279933 0.1999999997158793 0  0.5066462077286408 0.1999999997951466 0  0.3650630796805296 0.1998660177421185 0  0.4767730062903003 0.1999999997760861 0  0.3417402428749207 0.1998691685436023 0  0.3796850886975468 0.1999999997747527 0  0.4618364047835981 0.1999999997707546 0  0.4917096072838053 0.1999999997837982 0  0.3946216924947752 0.1999999997707583 0  0.4468998027977273 0.19999999976596 0  0.4089549611184538 0.1998691685561974 0  0.4322718181193819 0.2001274508896324 0  0.4201487188136795 0.1999966196750216 0  0.3528922763844846 0.2000185700886853 0  0.563312208394234 0.1999814294725935 0  0.3006558839857921 0.199996619617244 0  0.5815926055872035 0.1966545305273203 0  0.267705378812076 0.1964246528336625 0  0.529051107281429 0.1970915850532764 0  0.543987706184425 0.1970915849418242 0  0.2825131272008929 0.203547894613486 0  0.3199386702558336 0.2029084132691139 0  0.4842413068505431 0.1970915853453925 0  0.5141145077306662 0.1970915851585076 0  0.372216786665444 0.202908413578017 0  0.4693047055961208 0.1970915854356304 0  0.3348752753192449 0.2029084133594175 0  0.3871533906365125 0.2029084136521572 0  0.4543681038452012 0.1970915855220791 0  0.4991779075740009 0.1970915852545208 0  0.4020059650374534 0.2035478952696353 0  0.4394315016316041 0.1970915856070808 0  0.2550657431351787 0.2034088087436999 0  0.254890847506608 0.1966940347442226 0  0.5946538996002928 0.20243
[...]
<PointData  Vectors="f_44-1"> 
<DataArray  type="Float64"  Name="f_44-1"  NumberOfComponents="3" format="ascii">0.0000000000000000e+00 0.0000000000000000e+00 0.0000000000000000e+00  0.0000000000000000e+00 0.0000000000000000e+00 0.0000000000000000e+00  0.0000000000000000e+00 0.0000000000000000e+00 0.0000000000000000e+00  0.0000000000000000e+00 0.0000000000000000e+00 0.0000000000000000e+00  -1.6580002606796686e-08 1.4499883158309165e-09 0.0000000000000000e+00  -1.6562271691251525e-08 -1.5957811598971858e-09 0.0000000000000000e+00  0.0000000000000000e+00 0.0000000000000000e+00 0.0000000000000000e+00  0.0000000000000000e+00 0.0000000000000000e+00 0.0000000000000000e+00  0.0000000000000000e+00 0.0000000000000000e+00 0.0000000000000000e+00  0.0000000000000000e+00 0.0000000000000000e+00 0.0000000000000000e+00  -1.6609788787175435e-08 -7.2641663626612945e-11 0.0000000000000000e+00  0.0000000000000000e+00 0.0000000000000000e+00 0.0000000000000000e+00  0.0000000000000000e+00 0.0000000000000000e+00 0.0000000000000000e+00  0.0000000000000000e+00 0.0000000000000000e+00 0.0000000000000000e+00  0.0000000000000000e+00 0.0000000000000000e+00 0.0000000000000000e+00  0.0000000000000000e+00 0.0000000000000000e+00 0.0000000000000000e+00  0.0000000000000000e+00 0.0000000000000000e+00 0.0000000000000000e+00  0.0000000000000000e+00 0.0000000000000000e+00 0.0000000000000000e+00  0.0000000000000000e+00 0.0000000000000000e+00 0.0000000000000000e+00  0.0000000000000000e+00 0.0000000000000000e+00 0.0000000000000000e+00  0.0000000000000000e+00 0.0000000000000000e+00 0.0000000000000000e+00  0.0000000000000000e+00 0.0000000000000000e+00 0.0000000000000000e+00  0.0000000000000000e+00 0.0000000000000000e+00 0.0000000000000000e+00  0.0000000000000000e+00 0.0000000000000000e+00 0.0000000000000000e+00  0.0000000000000000e+00 0.0000000000000000e+00 0.0000000000000000e+00  0.0000000000000000e+00 0.0000000000000000e+00 0.0000000000000000e+00  0.0000000000000000e+00 0.0000000000000000e+00 0.0000000000000000e+00  0.0000000000000000e+00 0.0000000000000000e+00 0.0000000000000000e+00  0.0000000000000000e+00 0.0000000000000000e+00 0.0000000000000000e+00  0.0000000000000000e+00 0.0000000000000000e+00 0.0000000000000000e+00  0.0000000000000000e+00 0.0000000000000000e+00 0.0000000000000000e+00  0.0000000000000000e+00 0.0000000000000000e+00 0.0000000000000000e+00  0.0000000000000000e+00 0.0000000000000000e+00 0.0000000000000000e+00  0.0000000000000000e+00 0.0000000000000000e+00 0.0000000000000000e+00  0.0000000000000000e+00 0.0000000000000000e+00 0.0000000000000000e+00  0.0000000000000000e+00 0.0000000000000000e+00 0.0000000000000000e+00  0.0000000000000000e+00 0.0000000000000000e+00 0.0000000000000000e+00  0.0000000000000000e+00 0.0000000000000000e+00 0.0000000000000000e+00  0.0000000000000000e+00 0.0000000000000000e+00 0.0000000000000000e+00  0.0000000000000000e+00 0.0000000000000000e+00 0.0000000000000000e+00  0.0000000000000000e+00 0.0000000000000000e+00 0.0000000000000000e+00  0.0000000000000000e+00 0.0000000000000000e+00 0.0000000000000000e+00  0.0000000000000000e+00 0.0000000000000000e+00 0.0000000000000000e+00  0.0000000000000000e+00 0.0000000000000000e+00 0.0000000000000000e+00  0.0000000000000000e+00 0.0000000000000000e+00 0.0000000000000000e+00  0.0000000000000000e+00 0.0000000000000000e+00 0.0000000000000000e+00  0.0000000000000000e+00 0.0000000000000000e+00 0.0000000000000000e+00  0.0000000000000000e+00 0.0000000000000000e+00 0.0000000000000000e+00  0.0000000000000000e+00 0.0000000000000000e+00 0.0000000000000000e+00  0.0000000000000000e+00 0.0000000000000000e+00 0.0000000000000000e+00  0.0000000000000000e+00 0.0000000000000000e+00 0.0000000000000000e+00  0.0000000000000000e+00 0.0000000000000000e+00 0.0000000000000000e+00  0.0000000000000000e+00 0.0000000000000000e+00 0.0000000000000000e+00  0.0000000000000000e+00 0.0000000000000000e+00 0.0000000000000000e+00  0.0000000000000000e+00 0.0000000000000000e+00 0.0000000000000000e+00  0.0000000000000000e+00 0.0000000000000000e+00 0.0000000000000000e+00  0.0000000000000000e+00 0.0000000000000000e+00 0.0000000000000000e+00  0.0000000000000000e+00 0.0000000000000000e+00 0.0000000000000000e+00  0.0000000000000000e+00 0.0000000000000000e+00 0.0000000000000000e+00  0.0000000000000000e+00 0.0000000000000000e+00 0.0000000000000000e+00  0.0000000000000000e+00 0.0000000000000000e+00 0.0000000000000000e+00  0.0000000000000000e+00 0.0000000000000000e+00 0.0000000000000000e+00  0.0000000000000000e+00 0.0000000000000000e+00 0.0000000000000000e+00  0.0000000000000000e+00 0.0000000000000000e+00 0.0000000000000000e+00  0.0000000000000000e+00 0.0000000000000000e+00 0.0000000000000000e+00  0.0000000000000000e+00 0.0000000000000000e+00 0.0000000000000000e+00  0.0000000000000000e+00 0.0000000000000000e+00 0.0000000000000000e+00  0.0000000000000000e+00 0.0000000000000000e+00 0.0000000000000000e+00  0.0000000000000000e+00 0.0000000000000000e+00 0.0000000000000000e+00  0.0000000000000000e+00 0.0000000000000000e+00 0.0000000000000000e+00  0.0000000000000000e+00 0.0000000000000000e+00 0.0000000000000000e+00  0.0000000000000000e+00 0.0000000000000000e+00 0.0000000000000000e+00  0.0000000000000000e+00 0.0000000000000000e+00 0.0000000000000000e+00  0.0000000000000000e+00 0.0000000000000000e+00 0.0000000000000000e+00  0.0000000000000000e+00 0.0000000000000000e+00 0.0000000000000000e+00  0.0000000000000000e+00 0.0000000000000000e+00 0.0000000000000000e+00  0.0000000000000000e+00 0.0000000000000000e+00 0.0000000000000000e+00  0.0000000000000000e+00 0.0000000000000000e+00 0.0000000000000000e+00  0.0000000000000000e+00 0.0000000000000000e+00 0.0000000000000000e+00  0.0000000000000000e+00 0.0000000000000000e+00 0.0000000000000000e+00  0.0000000000000000e+00 0.0000000000000000e+00 0.0000000000000000e+00  0.0000000000000000e+00 0.0000000000000000e+00 0.0000000000000000e+00  0.0000000000000000e+00 0.0000000000000000e+00 0.0000000000000000e+00  0.0000000000000000e+00 0.0000000000000000e+00 0.0000000000000000e+00  0.0000000000000000e+00 0.0000000000000000e+00 0.0000000000000000e+00  0.0000000000000000e+00 0.0000000000000000e+00 0.0000000000000000e+00  0.0000000000000000e+00 0.0000000000000000e+00 0.0000000000000000e+00  0.0000000000000000e+00 0.0000000000000000e+00 0.0000000000000000e+00  0.0000000000000000e+00 0.0000000000000000e+00 0.0000000000000000e+00  0.0000000000000000e+00 0.0000000000000000e+00 0.0000000000000000e+00  0.0000000000000000e+00 0.0000000000000000e+00 0.0000000000000000e+00  0.0000000000000000e+00 0.0000000000000000e+00 0.0000000000000000e+00  0.0000000000000000e+00 0.0000000000000000e+00 0.0000000000000000e+00  0.0000000000000000e+00 0.0000000000000000e+00 0.0000000000000000e+00  0.0000000000000000e+00 0.0000000000000000e+00 0.0000000000000000e+00  0.0000000000000000e+00 0.0000000000000000e+00 0.0000000000000000e+00  0.0000000000000000e+00 0.0000000000000000e+00 0.0000000000000000e+00  0.0000000000000000e+00 0.0000000000000000e+00 0.0000000000000000e+00  0.0000000000000000e+00 0.0000000000000000e+00 0.0000000000000000e+00  0.0000000000000000e+00 0.0000000000000000e+00 0.0000000000000000e+00  0.0000000000000000e+00 0.0000000000000000e+00 0.0000000000000000e+00  0.0000000000000000e+00 0.0000000000000000e+00 0.0000000000000000e+00  0.0000000000000000e+00 0.0000000000000000e+00 0.0000000000000000e+00  0.0000000000000000e+00 0.0000000000000000e+00 0.0000000000000000e+00  0.0000000000000000e+00 0.0000000000000000e+00 0.0000000000000000e+00  0.0000000000000000e+00 0.0000000000000000e+00 0.0000000000000000e+00  0.0000000000000000e+00 0.0000000000000000e+00 0.0000000000000000e+00  0.0000000000000000e+00 0.0000000000000000e+00 0.0000000000000000e+00  0.0000000000000000e+00 0.0000000000000000e+00 0.0000000000000000e+00  0.0000000000000000e+00 0.0000000000000000e+00 0.0000000000000000e+00  0.0000000000000000e+00 0.0000000000000000e+00 0.0000000000000000e+00  0.0000000000000000e+00 0.0000000000000000e+00 0.0000000000000000e+00  0.0000000000000000e+00 0.0000000000000000e+00 0.0000000000000000e+00  0.0000000000000000e+00 0.0000000000000000e+00 0.0000000000000000e+00  0.0000000000000000e+00 0.0000000000000000e+00 0.0000000000000000e+00  0.0000000000000000e+00 0.0000000000000000e+00 0.0000000000000000e+00  0.0000000000000000e+00 0.0000000000000000e+00 0.0000000000000000e+00  0.0000000000000000e+00 0.0000000000000000e+00 0.0000000000000000e+00  0.0000000000000000e+00 0.0000000000000000e+00 0.0000000000000000e+00  0.0000000000000000e+00 0.0000000000000000e+00 0.0000000000000000e+00  0.0000000000000000e+00 0.0000000000000000e+00 0.0000000000000000e+00  0.0000000000000000e+00 0.0000000000000000e+00 0.0000000000000000e+00  0.0000000000000000e+00 0.0000000000000000e+00 0.0000000000000000e+00  0.0000000000000000e+00 0.0000000000000000e+00 0.0000000000000000e+00  0.0000000000000000e+00 0.0000000000000000e+00 0.0000000000000000e+00  0.0000000000000000e+00 0.0000000000000000e+00 0.0000000000000000e+00  0.0000000000000000e+00 0.0000000000000000e+00 0.0000000000000000e+00  0.0000000000000000e+00 0.0000000000000000e+00 0.0000000000000000e+00  0.0000000000000000e+00 0.0000000000000000e+00 0.0000000000000000e+00  0.0000000000000000e+00 0.0000000000000000e+00 0.0000000000000000e+00  0.0000000000000000e+00 0.0000000000000000e+00 0.0000000000000000e+00  0.0000000000000000e+00 0.0000000000000000e+00 0.0000000000000000e+00  0.0000000000000000e+00 0.0000000000000000e+00 0.0000000000000000e+00  0.0000000000000000e+00 0.0000000000000000e+00 0.0000000000000000e+00  0.0000000000000000e+00 0.0000000000000000e+00 0.0000000000000000e+00  0.0000000000000000e+00 0.0000000000000000e+00 0.0000000000000000e+00  0.0000000000000000e+00 0.0000000000000000e+00 0.0000000000000000e+00  0.0000000000000000e+00 0.0000000000000000e+00 0.0000000000000000e+00  0.0000000000000000e+00 0.0000000000000000e+00 0.0000000000000000e+00  0.0000000000000000e+00 0.0000000000000000e+00 0.0000000000000000e+00  0.0000000000000000e+00 0.0000000000000000e+00 0.0000000000000000e+00  0.0000000000000000e+00 0.0000000000000000e+00 0.0000000000000000e+00  0.0000000000000000e+00 0.0000000000000000e+00 0.0000000000000000e+00  1.0899586147565678e-10 -2.8411010908287516e-09 0.0000000000000000e+00  -1.3723414557759844e-10 -2.9461403638116829e-09 0.0000000000000000e+00  -9.3682833858789220e-11 -2.9230791399857569e-09 0.0000000000000000e+00  -7.7974084870776438e-12 -2.9045089775137568e-09 0.0000000000000000e+00  8.2216621050167686e-11 -2.9002476935261742e-09 0.0000000000000000e+00  1.5817430213359080e-10 -2.8948400397342815e-09 0.0000000000000000e+00  2.2204862751294795e-10 -2.8862142588937027e-09 0.0000000000000000e+00  2.7218313839661565e-10 -2.8731089156669611e-09 0.0000000000000000e+00  3.0892120289290654e-10 -2.8558463272341274e-09 0.0000000000000000e+00  3.3127814129634510e-10 -2.8373508640805908e-09 0.0000000000000000e+00  3.3805125522687123e-10 -2.8124120785637125e-09 0.0000000000000000e+00  3.2885477695590736e-10 -2.7885676368965629e-09 0.0000000000000000e+00  3.0181152177503826e-10 -2.7603850431563773e-09 0.0000000000000000e+00  2.5714574432186452e-10 -2.7323028073464150e-09 0.0000000000000000e+00  1.9137541913626197e-10 -2.7028349515215989e-09 0.0000000000000000e+00  1.0606849545481964e-10 -2.6729277959951338e-09 0.0000000000000000e+00  -1.3653920629528655e-12 -2.6454624909657183e-09 0.0000000000000000e+00  -1.3171534215075516e-10 -2.6136760516462652e-09 0.0000000000000000e+00  -2.8586282694522709e-10 -2.5862501864975635e-09 0.0000000000000000e+00  -4.6495585417659382e-10 -2.5537015092566342e-09 0.0000000000000000e+00  -6.6934481652121434e-10 -2.5245385962676118e-09 0.0000000000000000e+00  -9.0082751846207323e-10 -2.4916112177857933e-09 0.0000000000000000e+00  -1.1582244525906727e-09 -2.4593142416225521e-09 0.0000000000000000e+00  -1.4457314772297718e-09 -2.4247707993946038e-09 0.0000000000000000e+00  -1.7605302295656536e-09 -2.3896535447504205e-09 0.0000000000000000e+00  -2.1051746429078418e-09 -2.3551970114969331e-09 0.0000000000000000e+00  -2.4796791256359993e-09 -2.3171464470957624e-09 0.0000000000000000e+00  -2.8842110294191395e-09 -2.2813230893032820e-09 0.0000000000000000e+00  -3.3202101106087490e-09 -2.2412404925726462e-09 0.0000000000000000e+00  -3.7870094256697867e-09 -2.2046292181486522e-09 0.0000000000000000e+00  -4.2856784666787524e-09 -2.1631442448704232e-09 0.0000000000000000e+00  -4.8165253899931200e-09 -2.1255394380703602e-09 0.0000000000000000e+00  -5.3786140026853425e-09 -2.0833996969496875e-09 0.0000000000000000e+00  -5.9735215150922105e-09 -2.0440883969626983e-09 0.0000000000000000e+00  -6.6012949788565633e-09 -2.0014654360706899e-09 0.0000000000000000e+00  -7.2607772577999928e-09 -1.9630788789288836e-09 0.0000000000000000e+00  -7.9522652250478503e-09 -1.9208724999951922e-09 0.0000000000000000e+00  -8.6755772030993435e-09 -1.8829306136665420e-09 0.0000000000000000e+00  -9.4309091341353113e-09 -1.8410271206332390e-09 0.0000000000000000e+00  -1.0217918797150996e-08 -1.8039731911395448e-09 0.0000000000000000e+00  -1.1036193293068591e-08 -1.7650691898077935e-09 0.0000000000000000e+00  -1.1884780315649337e-08 -1.7271755609582429e-09 0.0000000000000000e+00  -1.2765863227111195e-08 -1.6910595082507043e-09 0.0000000000000000e+00  -1.3676968503078219e-08 -1.6545965480811234e-09 0.0000000000000000e+00  -1.4617946520948940e-08 -1.6200249809218370e-09 0.0000000000000000e+00  -1.5579332502642718e-08 -1.5796292026751193e-09 0.0000000000000000e+00  -1.6605011947006647e-08 -8.4174963199390772e-10 0.0000000000000000e+00  -1.6612389836438635e-08 6.9638334864286334e-10 0.0000000000000000e+00  -1.5595535812071563e-08 1.4470476402589070e-09 0.0000000000000000e+00  -1.4632201493362712e-08 1.4990860167331437e-09 0.0000000000000000e+00  -1.3688806547840023e-08 1.5434689736421176e-09 0.0000000000000000e+00  -1.2775400041647775e-08 1.5887527195456548e-09 0.0000000000000000e+00  -1.1891869661512866e-08 1.6311334063276397e-09 0.0000000000000000e+00  -1.1040731535653084e-08 1.6727950942740082e-09 0.0000000000000000e+00  -1.0220265816104628e-08 1.7146240561923827e-09 0.0000000000000000e+00  -9.4317003296345893e-09 1.7510618264719080e-09 0.0000000000000000e+00  -8.6747949160803323e-09 1.7935418931425209e-09 0.0000000000000000e+00  -7.9500605007179658e-09 1.8289030252129832e-09 0.0000000000000000e+00  -7.2577794317404243e-09 1.8710766139340029e-09 0.0000000000000000e+00  -6.5980938409741773e-09 1.9058042552886436e-09 0.0000000000000000e+00  -5.9708044405317696e-09 1.9471570221284260e-09 0.0000000000000000e+00  -5.3758983654508838e-09 1.9812955188563803e-09 0.0000000000000000e+00  -4.8133487262308180e-09 2.0223391891918307e-09 0.0000000000000000e+00  -4.2828682718555382e-09 2.0565266670709985e-09 0.0000000000000000e+00  -3.7846293050254380e-09 2.0976512461277025e-09 0.0000000000000000e+00  -3.3182709088668855e-09 2.1316017874349091e-09 0.0000000000000000e+00  -2.8832497074231642e-09 2.1717565424122765e-09 0.0000000000000000e+00  -2.4789551886529849e-09 2.2048829342503451e-09 0.0000000000000000e+00  -2.1050118291345032e-09 2.2442075320780158e-09 0.0000000000000000e+00  -1.7607696717329522e-09 2.2773259805703306e-09 0.0000000000000000e+00  -1.4463483007667778e-09 2.3143692928708173e-09 0.0000000000000000e+00  -1.1594423635306290e-09 2.3496197520869381e-09 0.0000000000000000e+00  -9.0218263360469916e-10 2.3838021939473679e-09 0.0000000000000000e+00  -6.7080275318829710e-10 2.4173252887840299e-09 0.0000000000000000e+00  -4.6567483226177816e-10 2.4483448793224630e-09 0.0000000000000000e+00  -2.8557100009650270e-10 2.4811781349861703e-09 0.0000000000000000e+00  -1.3017605736588109e-10 2.5101143428035773e-09 0.0000000000000000e+00  1.4899425935160049e-12 2.5399761797064701e-09 0.0000000000000000e+00  1.1049897365537112e-10 2.5654453693629501e-09 0.0000000000000000e+00  1.9746834462831868e-10 2.5905107608698227e-09 0.0000000000000000e+00  2.6411618743749093e-10 2.6141170350320187e-09 0.0000000000000000e+00  3.0903547027072958e-10 2.6354965474968886e-09 0.0000000000000000e+00  3.3474185569368242e-10 2.6565669264808931e-09 0.0000000000000000e+00  3.4166291343654685e-10 2.6753683144179143e-09 0.0000000000000000e+00  3.3091455255069962e-10 2.6966344565520577e-09 0.0000000000000000e+00  3.0397885874627777e-10 2.7162903611497069e-09 0.0000000000000000e+00  2.6162457986677797e-10 2.7386613565618014e-09 0.0000000000000000e+00  2.0606740489320440e-10 2.7617615967247774e-09 0.0000000000000000e+00  1.3729081938246793e-10 2.7859494581753355e-09 0.0000000000000000e+00  5.8134371941941505e-11 2.8105235248620923e-09 0.0000000000000000e+00  -3.3292300169901630e-11 2.8363512492527321e-09 0.0000000000000000e+00  -1.1704137311324178e-10 2.8785522223703821e-09 0.0000000000000000e+00  -1.5538485540463990e-10 2.9226423774415403e-09 0.0000000000000000e+00  8.9572416731189074e-11 2.8239664274679986e-09 0.0000000000000000e+00  -4.1865907026509513e-10 -2.9203502403989885e-11 0.0000000000000000e+00  -1.5109443764061920e-08 -8.2118252245161362e-11 0.0000000000000000e+00  -1.3299032458628900e-08 -8.6189299948863757e-11 0.0000000000000000e+00  -1.0591578688878884e-08 -6.4105414266892437e-11 0.0000000000000000e+00  -6.9456443631209370e-11 -2.7447798566836735e-11 0.0000000000000000e+00  -9.0440578672721872e-09 -4.4397232057868006e-11 0.0000000000000000e+00  1.0608198726418624e-10 -1.2432972787530601e-11 0.0000000000000000e+00  -7.5954009987515693e-09 -4.5795335624723713e-11 0.0000000000000000e+00  2.9291817783294816e-10 -3.2421552048456196e-11 0.0000000000000000e+00  3.4138522894802473e-10 -7.0473003676177562e-11 0.0000000000000000e+00  -6.2756421304729577e-09 -4.8229285663751106e-11 0.0000000000000000e+00  1.5536420869898198e-10 -1.9047299757502869e-11 0.0000000000000000e+00  -4.0242551714054412e-09 -5.3537024294077537e-11 0.0000000000000000e+00  3.2681243286732156e-10 -2.9541572630740893e-11 0.0000000000000000e+00  -5.6704099106551341e-11 -5.1858990836216321e-11 0.0000000000000000e+00  -3.0905234978603489e-09 -5.5027815169875615e-11 0.0000000000000000e+00  -5.0854289632217177e-09 -5.1298954667945188e-11 0.0000000000000000e+00  -3.6606780715044083e-10 -5.2453274450661084e-11 0.0000000000000000e+00  -2.2813391246586218e-09 -5.6003577384709325e-11 0.0000000000000000e+00  -7.5791657059324311e-10 -2.1676009516980338e-11 0.0000000000000000e+00  -1.6064092568177206e-09 -8.6016607921969892e-11 0.0000000000000000e+00  -1.1316329133753772e-09 -5.3999400716403975e-11 0.0000000000000000e+00  2.6892023954246270e-10 -6.4329595659818211e-11 0.0000000000000000e+00  -1.1962138787438102e-08 -4.4679605260044969e-11 0.0000000000000000e+00  2.1084356890552354e-10 -6.1686777543256492e-11 0.0000000000000000e+00  -1.4183567801906082e-08 4.6960682086797354e-10 0.0000000000000000e+00  -1.9247030028973032e-10 1.0536906773491893e-09 0.0000000000000000e+00  -8.3042665709854969e-09 4.9503152872995173e-10 0.0000000000000000e+00  -9.8173850694552440e-09 4.7261324482194510e-10 0.0000000000000000e+00  3.3569301773726964e-11 -1.0561939204162482e-09 0.0000000000000000e+00  3.2424457115416945e-10 -8.7911934725211868e-10 0.0000000000000000e+00  -4.5392318555690882e-09 5.5601248599338315e-10 0.0000000000000000e+00  -6.9197684799655506e-09 5.1608308539393611e-10 0.0000000000000000e+00  6.1363615959220101e-11 -8.1104031812645391e-10 0.0000000000000000e+00  -3.5421485395453314e-09 5.7658549772606869e-10 0.0000000000000000e+00  3.4099927187101778e-10 -8.6303316958798033e-10 0.0000000000000000e+00  -2.0010034659260136e-10 -7.9303743674319829e-10 0.0000000000000000e+00  -2.6713131878628928e-09 5.9715223913305299e-10 0.0000000000000000e+00  -5.6647761795219491e-09 5.3607435757318027e-10 0.0000000000000000e+00  -5.5650886075010688e-10 -9.3533983397518525e-10 0.0000000000000000e+00  -1.9231081261179505e-09 6.1805458469370971e-10 0.0000000000000000e+00  -5.5902810066196710e-10 -7.9863655368967881e-10 0.0000000000000000e+00  -5.5899601698155176e-10 7.5999237917034419e-10 0.0000000000000000e+00  -1.5890509418318691e-08 -4.3341249314801065e-10 0.0000000000000000e+00  -1.8209533719630274e-10 -1.212929