<?xml version="1.0"?>
<VTKFile type="UnstructuredGrid"  version="0.1"  >
<UnstructuredGrid>
<Piece  NumberOfPoints="439" NumberOfCells="725">
<Points>
<DataArray  type="Float64"  NumberOfComponents="3"  format="ascii">0.6130708410325818 0.08862600019752893 0  0.6206623687241405 0.1101227661827544 0  0.2489897949 0.21 0  0.2489897949 0.19 0  0.6168665986779076 0.09937441697309309 0  0.2496355385699469 0.2060260530378829 0  0.249959460510575 0.2020130349814059 0  0.2499594605105767 0.1979869650186357 0  0.24963553856995 0.1939739469621422 0  0.2540752978806582 0.2098816448965694 0  0.2591731848285467 0.2097503337351105 0  0.2642716668143666 0.2095909254557395 0  0.2693676524437784 0.2093177798831042 0  0.2744592260988524 0.2089864468801919 0  0.279564935576339 0.2085729650823661 0  0.2846592625940272 0.2081178866927772 0  0.2897501519570771 0.207584548669738 0  0.2948499224095203 0.2069926469684049 0  0.2999501250953212 0.2063409696216965 0  0.3050710688876839 0.2056110873109904 0  0.310191796806807 0.2048726968654694 0  0.3153113896115673 0.2040385627439406 0  0.320458539783512 0.20316531334098 0  0.3255896104616741 0.2022429970973631 0  0.3307390809190054 0.2012583200059004 0  0.3358898719229638 0.2002372560877482 0  0.3410508508854914 0.1991532677101973 0  0.3462080320774017 0.1980426726136568 0  0.3513772506717741 0.1968802757366356 0  0.3565498461694715 0.1956806118632373 0  0.3617250295346295 0.1944436861549016 0  0.3669230255123024 0.1931521861317513 0  0.3721222933733217 0.1918541734418606 0  0.3773283090917763 0.1905012418708468 0  0.3825343927469123 0.1891255815364967 0  0.3877507232208641 0.1877121355901747 0  0.3929716392589619 0.1862702043133107 0  0.3981950148803258 0.1848003396771757 0  0.4034362753486311 0.1832910993326969 0  0.4086777216130465 0.1817786068643193 0  0.4139214636320314 0.1802247213247734 0  0.4191765499134945 0.1786437471286492 0  0.4244328784789548 0.1770564936238845 0  0.429692981797939 0.1754334859120182 0  0.4349632674304056 0.1737982397145376 0  0.4402317720996802 0.172139851991539 0  0.4455118460443566 0.1704633084211211 0  0.4507894172313371 0.16877113993613 0  0.4560718163373499 0.1670600253397277 0  0.4613590335211203 0.1653366469771086 0  0.4666506904059523 0.1635984025858439 0  0.4719429304136354 0.161845207572727 0  0.4772395254539633 0.1600818682701122 0  0.4825396973090734 0.1583058079663073 0  0.4878403737436603 0.1565175367254662 0  0.4931439923249462 0.1547208136674336 0  0.4984504257047759 0.1529138933633792 0  0.5037570298645071 0.1510979479708885 0  0.5090657902059871 0.1492753879969268 0  0.5143765796303655 0.1474450553278291 0  0.5196874044543758 0.1456078125245208 0  0.5249996738957287 0.1437656524964423 0  0.5303132559119097 0.1419176996641064 0  0.5356266715706212 0.1400647724985564 0  0.5409411945219794 0.1382083293276495 0  0.5462563602865348 0.1363478865516236 0  0.5515714991207492 0.1344841217194629 0  0.5568864334713678 0.1326178049490313 0  0.5622014389246044 0.1307486838621907 0  0.5675168159535782 0.1288774702462918 0  0.5728320103349926 0.1270058239470949 0  0.5781471074242479 0.1251319385353821 0  0.583462375678555 0.1232573669485064 0  0.5887771721191059 0.1213819650357291 0  0.5940918340110618 0.1195057683266354 0  0.5994062886938348 0.1176294441063205 0  0.6047205044498586 0.1157527986732307 0  0.6100345948606842 0.1138760364552248 0  0.6153485186721841 0.1119994036041264 0  0.6077570378690116 0.09050261362144181 0  0.6024432771345994 0.09237933506843593 0  0.5971295513494 0.09425620503374751 0  0.5918160230760506 0.09613315122915249 0  0.5865027859220684 0.09801000966971403 0  0.5811898405857614 0.09988690267934282 0  0.5758775617444296 0.1017633669583446 0  0.5705661811819694 0.1036395012061477 0  0.5652552051058199 0.1055150889334735 0  0.5599455982435974 0.1073895075287369 0  0.554636886861002 0.1092633043116364 0  0.549329365698304 0.1111351013944779 0  0.5440241043125678 0.1130047033062394 0  0.5387199165107882 0.1148740442639124 0  0.5334176432488899 0.1167395593033006 0  0.5281188970596059 0.1186013217695012 0  0.5228216138702388 0.1204623982589108 0  0.5175267620026476 0.1223173990576386 0  0.5122367043752944 0.1241670565541392 0  0.506948574403532 0.126015636279218 0  0.5016635720287128 0.127855538418196 0  0.4963848333625883 0.1296880571258318 0  0.4911085314062149 0.1315190172305521 0  0.485836061110875 0.1333382879241196 0  0.4805716604835807 0.1351476360541107 0  0.4753107044930122 0.1369535081510069 0  0.4700547096556779 0.1387470265824529 0  0.4648083774234644 0.1405266090862413 0  0.45956408465017 0.1423034302727614 0  0.4543244785945684 0.1440612181527793 0  0.4490991892477058 0.1458022481743427 0  0.4438780270197704 0.1475393526021787 0  0.4386651567269003 0.1492541345957608 0  0.4334563973691943 0.1509569582842666 0  0.4282572399226311 0.1526417557158553 0  0.423067320765367 0.1543026702104545 0  0.4178884850432766 0.1559531358115766 0  0.4127173406020407 0.157578188162328 0  0.4075591089144727 0.1591845513727869 0  0.4024135734841491 0.1607675838567036 0  0.397277910746515 0.1623237627602379 0  0.3921455913965132 0.1638574998826073 0  0.387024842166618 0.1653609224738211 0  0.3819256042608363 0.1668474284920473 0  0.3768295927216491 0.1682950017440537 0  0.3717584762224637 0.1697124523387689 0  0.3666875607398448 0.1710993754344667 0  0.3616364165530869 0.1724462583620251 0  0.3565886634271303 0.1737646670669162 0  0.3515541873421208 0.1750405745672296 0  0.34654679553252 0.1762923052362708 0  0.3415397688641066 0.1774936649122843 0  0.3365645152309982 0.178652253031393 0  0.3315832631498647 0.1797655928257335 0  0.3266269786315439 0.1808173149354869 0  0.321681335284886 0.1818537932606518 0  0.316746838371417 0.1828163488823583 0  0.3118474004913546 0.1837370239202729 0  0.3069389945884538 0.1845997669540187 0  0.3020529979183654 0.1853930203371593 0  0.2971704333078969 0.1861430033422805 0  0.2923004792915813 0.1868211975924403 0  0.2874602330605223 0.1874526238012338 0  0.2826081512297564 0.1880119748519189 0  0.2777900192265105 0.1885089622102123 0  0.2729669432639579 0.1889217702398586 0  0.2681716722047927 0.189267423820408 0  0.2633687252318999 0.1895541763588153 0  0.2585723454719613 0.1897583876663482 0  0.2537830797506351 0.1898638076100785 0  0.6149687497274194 0.09400022092481977 0  0.6187644464961143 0.1047485810112018 0  0.2589820223191265 0.200424231452979 0  0.5557621316804929 0.1209438801027085 0  0.5827177084290149 0.1113994494411748 0  0.2775173335238243 0.1995447664554232 0  0.5242687225069514 0.1318806037381696 0  0.5401882073570992 0.1263042475544067 0  0.2945144756123874 0.1961489745922003 0  0.5981820553442074 0.1054210487359385 0  0.3106767511747147 0.1944296966922086 0  0.3379625748200055 0.190036128246094 0  0.5083658080381189 0.1374165836811112 0  0.3565959983302551 0.1847865481275671 0  0.4924855541528473 0.1428964253056494 0  0.3726062390990754 0.1806882468001976 0  0.3925769269022837 0.175111749523175 0  0.4761104372010464 0.148050996681798 0  0.4604679007797972 0.1538428048391506 0  0.4077769729651667 0.1707441616642163 0  0.4237607208819413 0.1657196470456299 0  0.4440317715247245 0.1592331611059531 0  0.3206722863883056 0.1926937574375569 0  0.5721557324280867 0.1151531159546377 0  0.432715668564316 0.1627151502768985 0  0.347846337437494 0.1870618141224299 0  0.383720239109112 0.1777982364231201 0  0.286108490976602 0.1979084102559915 0  0.6066583302716632 0.1008579771376798 0  0.2680694995006796 0.2011212297230629 0  0.4691713071948345 0.1536016906625944 0  0.500895851813424 0.1428121091493105 0  0.5167968476424352 0.1373074109546454 0  0.3996526333506931 0.1704850411013739 0  0.4850182669624932 0.1482505007813493 0  0.5327149771041945 0.131753355862874 0  0.4533613587669004 0.1588433196272869 0  0.5486449775582111 0.1261644618206075 0  0.4152137787257761 0.1657722375095574 0  0.3636703734478958 0.1805202438804864 0  0.3032166084742694 0.1933080309713563 0  0.5894433224781906 0.1063398659898502 0  0.5625338310970159 0.1150892596831545 0  0.3293581357747418 0.1940190213104092 0  0.5628795929738847 0.1230733020271386 0  0.3300572187711095 0.1867217575417159 0  0.548686648480742 0.1187583835623701 0  0.5327670589088597 0.124356096233861 0  0.5168638537381116 0.1299228628783855 0  0.5941218467486115 0.1120914005158366 0  0.3019115841602986 0.1998286434947734 0  0.48513280786855 0.1409060458177058 0  0.5009833511891592 0.1354450552252226 0  0.3992346560032529 0.1775785756422255 0  0.3630128204552589 0.187437534236391 0  0.4646553718214593 0.1478553369517968 0  0.4535548491143326 0.151564775867377 0  0.4148760747925024 0.172929110898944 0  0.2557145062113657 0.1960255180684083 0  0.2550594140753012 0.2034032263196552 0  0.4411866932130754 0.1645823065084422 0  0.3755967893930326 0.1756443680865166 0  0.340597273716495 0.1842914034581512 0  0.2809409935484874 0.1943964738768971 0  0.2908742768346876 0.1933134225202495 0  0.4304902069704215 0.1681876937805601 0  0.3503483684590458 0.1819980264987974 0  0.3860645479174383 0.1725116478007046 0  0.3163042124227798 0.1894427498434431 0  0.5776226546607068 0.1178039384265865 0  0.5750093463282155 0.1094146642850409 0  0.317288257373979 0.1973512385788144 0  0.2708025284210404 0.1951754394639268 0  0.6050099970109822 0.1092710669246976 0  0.4382155516843119 0.1558207449179312 0  0.4274403635006482 0.1597662127458189 0  0.3422186943373247 0.1933515934656676 0  0.2813342199023165 0.2032024236203583 0  0.2920655623119194 0.2020541048298701 0  0.3780763911878449 0.1842481646448377 0  0.3523324404966602 0.1914499231984028 0  0.3884935838266099 0.1821045296228722 0  0.264625979440824 0.1957935444664582 0  0.6123006189403646 0.1058726947001529 0  0.5422524840492067 0.1204425717601818 0  0.5263394519547315 0.1260296507333706 0  0.3079077796893049 0.199408166951719 0  0.5104456396564367 0.1315809638903816 0  0.5880543640460114 0.114804410308721 0  0.4945777454847382 0.1370816965656885 0  0.4787885212030913 0.1424940525858149 0  0.3692048635510118 0.1863976572
[...]
<PointData  Vectors="f_19-1"> 
<DataArray  type="Float64"  Name="f_19-1"  NumberOfComponents="3" format="ascii">0.0000000000000000e+00 0.0000000000000000e+00 0.0000000000000000e+00  0.0000000000000000e+00 0.0000000000000000e+00 0.0000000000000000e+00  0.0000000000000000e+00 0.0000000000000000e+00 0.0000000000000000e+00  0.0000000000000000e+00 0.0000000000000000e+00 0.0000000000000000e+00  0.0000000000000000e+00 0.0000000000000000e+00 0.0000000000000000e+00  0.0000000000000000e+00 0.0000000000000000e+00 0.0000000000000000e+00  0.0000000000000000e+00 0.0000000000000000e+00 0.0000000000000000e+00  0.0000000000000000e+00 0.0000000000000000e+00 0.0000000000000000e+00  0.0000000000000000e+00 0.0000000000000000e+00 0.0000000000000000e+00  0.0000000000000000e+00 0.0000000000000000e+00 0.0000000000000000e+00  0.0000000000000000e+00 0.0000000000000000e+00 0.0000000000000000e+00  0.0000000000000000e+00 0.0000000000000000e+00 0.0000000000000000e+00  0.0000000000000000e+00 0.0000000000000000e+00 0.0000000000000000e+00  0.0000000000000000e+00 0.0000000000000000e+00 0.0000000000000000e+00  0.0000000000000000e+00 0.0000000000000000e+00 0.0000000000000000e+00  0.0000000000000000e+00 0.0000000000000000e+00 0.0000000000000000e+00  0.0000000000000000e+00 0.0000000000000000e+00 0.0000000000000000e+00  0.0000000000000000e+00 0.0000000000000000e+00 0.0000000000000000e+00  0.0000000000000000e+00 0.0000000000000000e+00 0.0000000000000000e+00  0.0000000000000000e+00 0.0000000000000000e+00 0.0000000000000000e+00  0.0000000000000000e+00 0.0000000000000000e+00 0.0000000000000000e+00  0.0000000000000000e+00 0.0000000000000000e+00 0.0000000000000000e+00  0.0000000000000000e+00 0.0000000000000000e+00 0.0000000000000000e+00  0.0000000000000000e+00 0.0000000000000000e+00 0.0000000000000000e+00  0.0000000000000000e+00 0.0000000000000000e+00 0.0000000000000000e+00  0.0000000000000000e+00 0.0000000000000000e+00 0.0000000000000000e+00  0.0000000000000000e+00 0.0000000000000000e+00 0.0000000000000000e+00  0.0000000000000000e+00 0.0000000000000000e+00 0.0000000000000000e+00  0.0000000000000000e+00 0.0000000000000000e+00 0.0000000000000000e+00  0.0000000000000000e+00 0.0000000000000000e+00 0.0000000000000000e+00  0.0000000000000000e+00 0.0000000000000000e+00 0.0000000000000000e+00  0.0000000000000000e+00 0.0000000000000000e+00 0.0000000000000000e+00  0.0000000000000000e+00 0.0000000000000000e+00 0.0000000000000000e+00  0.0000000000000000e+00 0.0000000000000000e+00 0.0000000000000000e+00  0.0000000000000000e+00 0.0000000000000000e+00 0.0000000000000000e+00  0.0000000000000000e+00 0.0000000000000000e+00 0.0000000000000000e+00  0.0000000000000000e+00 0.0000000000000000e+00 0.0000000000000000e+00  0.0000000000000000e+00 0.0000000000000000e+00 0.0000000000000000e+00  0.0000000000000000e+00 0.0000000000000000e+00 0.0000000000000000e+00  0.0000000000000000e+00 0.0000000000000000e+00 0.0000000000000000e+00  0.0000000000000000e+00 0.0000000000000000e+00 0.0000000000000000e+00  0.0000000000000000e+00 0.0000000000000000e+00 0.0000000000000000e+00  0.0000000000000000e+00 0.0000000000000000e+00 0.0000000000000000e+00  0.0000000000000000e+00 0.0000000000000000e+00 0.0000000000000000e+00  0.0000000000000000e+00 0.0000000000000000e+00 0.0000000000000000e+00  0.0000000000000000e+00 0.0000000000000000e+00 0.0000000000000000e+00  0.0000000000000000e+00 0.0000000000000000e+00 0.0000000000000000e+00  0.0000000000000000e+00 0.0000000000000000e+00 0.0000000000000000e+00  0.0000000000000000e+00 0.0000000000000000e+00 0.0000000000000000e+00  0.0000000000000000e+00 0.0000000000000000e+00 0.0000000000000000e+00  0.0000000000000000e+00 0.0000000000000000e+00 0.0000000000000000e+00  0.0000000000000000e+00 0.0000000000000000e+00 0.0000000000000000e+00  0.0000000000000000e+00 0.0000000000000000e+00 0.0000000000000000e+00  0.0000000000000000e+00 0.0000000000000000e+00 0.0000000000000000e+00  0.0000000000000000e+00 0.0000000000000000e+00 0.0000000000000000e+00  0.0000000000000000e+00 0.0000000000000000e+00 0.0000000000000000e+00  0.0000000000000000e+00 0.0000000000000000e+00 0.0000000000000000e+00  0.0000000000000000e+00 0.0000000000000000e+00 0.0000000000000000e+00  0.0000000000000000e+00 0.0000000000000000e+00 0.0000000000000000e+00  0.0000000000000000e+00 0.0000000000000000e+00 0.0000000000000000e+00  0.0000000000000000e+00 0.0000000000000000e+00 0.0000000000000000e+00  0.0000000000000000e+00 0.0000000000000000e+00 0.0000000000000000e+00  0.0000000000000000e+00 0.0000000000000000e+00 0.0000000000000000e+00  0.0000000000000000e+00 0.0000000000000000e+00 0.0000000000000000e+00  0.0000000000000000e+00 0.0000000000000000e+00 0.0000000000000000e+00  0.0000000000000000e+00 0.0000000000000000e+00 0.0000000000000000e+00  0.0000000000000000e+00 0.0000000000000000e+00 0.0000000000000000e+00  0.0000000000000000e+00 0.0000000000000000e+00 0.0000000000000000e+00  0.0000000000000000e+00 0.0000000000000000e+00 0.0000000000000000e+00  0.0000000000000000e+00 0.0000000000000000e+00 0.0000000000000000e+00  0.0000000000000000e+00 0.0000000000000000e+00 0.0000000000000000e+00  0.0000000000000000e+00 0.0000000000000000e+00 0.0000000000000000e+00  0.0000000000000000e+00 0.0000000000000000e+00 0.0000000000000000e+00  0.0000000000000000e+00 0.0000000000000000e+00 0.0000000000000000e+00  0.0000000000000000e+00 0.0000000000000000e+00 0.0000000000000000e+00  0.0000000000000000e+00 0.0000000000000000e+00 0.0000000000000000e+00  0.0000000000000000e+00 0.0000000000000000e+00 0.0000000000000000e+00  0.0000000000000000e+00 0.0000000000000000e+00 0.0000000000000000e+00  0.0000000000000000e+00 0.0000000000000000e+00 0.0000000000000000e+00  0.0000000000000000e+00 0.0000000000000000e+00 0.0000000000000000e+00  0.0000000000000000e+00 0.0000000000000000e+00 0.0000000000000000e+00  0.0000000000000000e+00 0.0000000000000000e+00 0.0000000000000000e+00  0.0000000000000000e+00 0.0000000000000000e+00 0.0000000000000000e+00  0.0000000000000000e+00 0.0000000000000000e+00 0.0000000000000000e+00  0.0000000000000000e+00 0.0000000000000000e+00 0.0000000000000000e+00  0.0000000000000000e+00 0.0000000000000000e+00 0.0000000000000000e+00  0.0000000000000000e+00 0.0000000000000000e+00 0.0000000000000000e+00  0.0000000000000000e+00 0.0000000000000000e+00 0.0000000000000000e+00  0.0000000000000000e+00 0.0000000000000000e+00 0.0000000000000000e+00  0.0000000000000000e+00 0.0000000000000000e+00 0.0000000000000000e+00  0.0000000000000000e+00 0.0000000000000000e+00 0.0000000000000000e+00  0.0000000000000000e+00 0.0000000000000000e+00 0.0000000000000000e+00  0.0000000000000000e+00 0.0000000000000000e+00 0.0000000000000000e+00  0.0000000000000000e+00 0.0000000000000000e+00 0.0000000000000000e+00  0.0000000000000000e+00 0.0000000000000000e+00 0.0000000000000000e+00  0.0000000000000000e+00 0.0000000000000000e+00 0.0000000000000000e+00  0.0000000000000000e+00 0.0000000000000000e+00 0.0000000000000000e+00  0.0000000000000000e+00 0.0000000000000000e+00 0.0000000000000000e+00  0.0000000000000000e+00 0.0000000000000000e+00 0.0000000000000000e+00  0.0000000000000000e+00 0.0000000000000000e+00 0.0000000000000000e+00  0.0000000000000000e+00 0.0000000000000000e+00 0.0000000000000000e+00  0.0000000000000000e+00 0.0000000000000000e+00 0.0000000000000000e+00  0.0000000000000000e+00 0.0000000000000000e+00 0.0000000000000000e+00  0.0000000000000000e+00 0.0000000000000000e+00 0.0000000000000000e+00  0.0000000000000000e+00 0.0000000000000000e+00 0.0000000000000000e+00  0.0000000000000000e+00 0.0000000000000000e+00 0.0000000000000000e+00  0.0000000000000000e+00 0.0000000000000000e+00 0.0000000000000000e+00  0.0000000000000000e+00 0.0000000000000000e+00 0.0000000000000000e+00  0.0000000000000000e+00 0.0000000000000000e+00 0.0000000000000000e+00  0.0000000000000000e+00 0.0000000000000000e+00 0.0000000000000000e+00  0.0000000000000000e+00 0.0000000000000000e+00 0.0000000000000000e+00  0.0000000000000000e+00 0.0000000000000000e+00 0.0000000000000000e+00  0.0000000000000000e+00 0.0000000000000000e+00 0.0000000000000000e+00  0.0000000000000000e+00 0.0000000000000000e+00 0.0000000000000000e+00  0.0000000000000000e+00 0.0000000000000000e+00 0.0000000000000000e+00  0.0000000000000000e+00 0.0000000000000000e+00 0.0000000000000000e+00  0.0000000000000000e+00 0.0000000000000000e+00 0.0000000000000000e+00  0.0000000000000000e+00 0.0000000000000000e+00 0.0000000000000000e+00  0.0000000000000000e+00 0.0000000000000000e+00 0.0000000000000000e+00  0.0000000000000000e+00 0.0000000000000000e+00 0.0000000000000000e+00  0.0000000000000000e+00 0.0000000000000000e+00 0.0000000000000000e+00  0.0000000000000000e+00 0.0000000000000000e+00 0.0000000000000000e+00  0.0000000000000000e+00 0.0000000000000000e+00 0.0000000000000000e+00  0.0000000000000000e+00 0.0000000000000000e+00 0.0000000000000000e+00  0.0000000000000000e+00 0.0000000000000000e+00 0.0000000000000000e+00  0.0000000000000000e+00 0.0000000000000000e+00 0.0000000000000000e+00  0.0000000000000000e+00 0.0000000000000000e+00 0.0000000000000000e+00  0.0000000000000000e+00 0.0000000000000000e+00 0.0000000000000000e+00  0.0000000000000000e+00 0.0000000000000000e+00 0.0000000000000000e+00  0.0000000000000000e+00 0.0000000000000000e+00 0.0000000000000000e+00  0.0000000000000000e+00 0.0000000000000000e+00 0.0000000000000000e+00  0.0000000000000000e+00 0.0000000000000000e+00 0.0000000000000000e+00  0.0000000000000000e+00 0.0000000000000000e+00 0.0000000000000000e+00  0.0000000000000000e+00 0.0000000000000000e+00 0.0000000000000000e+00  0.0000000000000000e+00 0.0000000000000000e+00 0.0000000000000000e+00  0.0000000000000000e+00 0.0000000000000000e+00 0.0000000000000000e+00  0.0000000000000000e+00 0.0000000000000000e+00 0.0000000000000000e+00  0.0000000000000000e+00 0.0000000000000000e+00 0.0000000000000000e+00  0.0000000000000000e+00 0.0000000000000000e+00 0.0000000000000000e+00  0.0000000000000000e+00 0.0000000000000000e+00 0.0000000000000000e+00  0.0000000000000000e+00 0.0000000000000000e+00 0.0000000000000000e+00  0.0000000000000000e+00 0.0000000000000000e+00 0.0000000000000000e+00  0.0000000000000000e+00 0.0000000000000000e+00 0.0000000000000000e+00  0.0000000000000000e+00 0.0000000000000000e+00 0.0000000000000000e+00  0.0000000000000000e+00 0.0000000000000000e+00 0.0000000000000000e+00  0.0000000000000000e+00 0.0000000000000000e+00 0.0000000000000000e+00  0.0000000000000000e+00 0.0000000000000000e+00 0.0000000000000000e+00  0.0000000000000000e+00 0.0000000000000000e+00 0.0000000000000000e+00  0.0000000000000000e+00 0.0000000000000000e+00 0.0000000000000000e+00  0.0000000000000000e+00 0.0000000000000000e+00 0.0000000000000000e+00  0.0000000000000000e+00 0.0000000000000000e+00 0.0000000000000000e+00  0.0000000000000000e+00 0.0000000000000000e+00 0.0000000000000000e+00  0.0000000000000000e+00 0.0000000000000000e+00 0.0000000000000000e+00  0.0000000000000000e+00 0.0000000000000000e+00 0.0000000000000000e+00  0.0000000000000000e+00 0.0000000000000000e+00 0.0000000000000000e+00  0.0000000000000000e+00 0.0000000000000000e+00 0.0000000000000000e+00  0.0000000000000000e+00 0.0000000000000000e+00 0.0000000000000000e+00  0.0000000000000000e+00 0.0000000000000000e+00 0.0000000000000000e+00  0.0000000000000000e+00 0.0000000000000000e+00 0.0000000000000000e+00  0.0000000000000000e+00 0.0000000000000000e+00 0.0000000000000000e+00  0.0000000000000000e+00 0.0000000000000000e+00 0.0000000000000000e+00  0.0000000000000000e+00 0.0000000000000000e+00 0.0000000000000000e+00  0.0000000000000000e+00 0.0000000000000000e+00 0.0000000000000000e+00  0.0000000000000000e+00 0.0000000000000000e+00 0.0000000000000000e+00  0.0000000000000000e+00 0.0000000000000000e+00 0.0000000000000000e+00  0.0000000000000000e+00 0.0000000000000000e+00 0.0000000000000000e+00  0.0000000000000000e+00 0.0000000000000000e+00 0.0000000000000000e+00  0.0000000000000000e+00 0.0000000000000000e+00 0.0000000000000000e+00  0.0000000000000000e+00 0.0000000000000000e+00 0.0000000000000000e+00  0.0000000000000000e+00 0.0000000000000000e+00 0.0000000000000000e+00  0.0000000000000000e+00 0.0000000000000000e+00 0.0000000000000000e+00  0.0000000000000000e+00 0.0000000000000000e+00 0.0000000000000000e+00  0.0000000000000000e+00 0.0000000000000000e+00 0.0000000000000000e+00  0.0000000000000000e+00 0.0000000000000000e+00 0.0000000000000000e+00  0.0000000000000000e+00 0.0000000000000000e+00 0.0000000000000000e+00  0.0000000000000000e+00 0.0000000000000000e+00 0.0000000000000000e+00  0.0000000000000000e+00 0.0000000000000000e+00 0.0000000000000000e+00  0.0000000000000000e+00 0.0000000000000000e+00 0.0000000000000000e+00  0.0000000000000000e+00 0.0000000000000000e+00 0.0000000000000000e+00  0.0000000000000000e+00 0.0000000000000000e+00 0.0000000000000000e+00  0.0000000000000000e+00 0.0000000000000000e+00 0.0000000000000000e+00  0.0000000000000000e+00 0.0000000000000000e+00 0.0000000000000000e+00  0.0000000000000000e+00 0.0000000000000000e+00 0.0000000000000000e+00  0.0000000000000000e+00 0.0000000000000000e+00 0.0000000000000000e+00  0.0000000000000000e+00 0.0000000000000000e+00 0.0000000000000000e+00  0.0000000000000000e+00 0.0000000000000000e+00 0.0000000000000000e+00  0.0000000000000000e+00 0.0000000000000000e+00 0.0000000000000000e+00  0.0000000000000000e+00 0.0000000000000000e+00 0.0000000000000000e+00  0.0000000000000000e+00 0.0000000000000000e+00 0.0000000000000000e+00  0.0000000000000000e+00 0.0000000000000000e+00 0.0000000000000000e+00  0.0000000000000000e+00 0.0000000000000000e+00 0.0000000000000000e+00  0.0000000000000000e+00 0.0000000000000000e+00 0.0000000000000000e+00  0.0000000000000000e+00 0.0000000000000000e+00 0.0000000000000000e+00  0.0000000000000000e+00 0.0000000000000000e+00 0.0000000000000000e+00  0.0000000000000000e+00 0.0000000000000000e+00 0.0000000000000000e+00  0.0000000000000000e+00 0.0000000000000000e+00 0.0000000000000000e+00  0.0000000000000000e+00 0.0000000000000000e+00 0.0000000000000000e+00  0.0000000000000000e+00 0.0000000000000000e+00 0.0000000000000000e+00  0.0000000000000000e+00 0.0000000000000000e+00 0.0000000000000000e+00  0.0000000000000000e+00 0.0000000000000000e+00 0.0000000000000000e+00  0.0000000000000000e+00 0.0000000000000000e+00 0.0000000000000000e+00  0.0000000000000000e+00 0.0000000000000000e+00 0.0000000000000000e+00  0.0000000000000000e+00 0.0000000000000000e+00 0.0000000000000000e+00  0.0000000000000000e+00 0.0000000000000000e+00 0.0000000000000000e+00  0.0000000000000000e+00 0.0000000000000000e+00 0.0000000000000000e+00  0.0000000000000000e+00 0.0000000000000000e+00 0.0000000000000000e+00  0.0000000000000000e+00 0.0000000000000000e+00 0.0000000000000000e+00  0.0000000000000000e+00 0.0000000000000000e+00 0.0000000000000000e+00  0.0000000000000000e+00 0.0000000000000000e+00 0.0000000000000000e+00  0.0000000000000000e+00 0.0000000000000000e+00 0.0000000000000000e+00  0.0000000000000000e+00 0.0000000000000000e+00 0.0000000000000000e+00  0.0000000000000000e+00 0.0000000000000000e+00 0.0000000000000000e+00  0.0000000000000000e+00 0.0000000000000000e+00 0.0000000000000000e+00  0.0000000000000000e+00 0.0000000000000000e+00 0.0000000000000000e+00  0.0000000000000000e+00 0.0000000000000000e+00 0.0000000000000000e+00  0.0000000000000000e+00 0.0000000000000000e+00 0.0000000000000000e+00  0.0000000000000000e+00 0.0000000000000000e+00 0.0000000000000000e+00  0.0000000000000000e+00 0.0000000000000000e+00 0.0000000000000000e+00  0.0000000000000000e+00 0.0000000000000000e+00 0.0000000000000000e+00  0.0000000000000000e+00 0.0000000000000000e+00 0.0000000000000000e+00  0.0000000000000000e+00 0.0000000000000000e+00 0.0000000000000000e+00  0.0000000000000000e+00 0.0000000000000000e+00 0.0000000000000000e+00  0.0000000000000000e+00 0.0000000000000000e+00 0.0000000000000000e+00  0.0000000000000000e+00 0.0000000000000000e+00 0.0000000000000000e+00  0.0000000000000000e+00 0.0000000000000000e+00 0.0000000000000000e+00  0.0000000000000000e+00 0.0000000000000000e+00 0.0000000000000000e+00  0.0000000000000000e+00 0.0000000000000000e+00 0.0000000000000000e+00  0.0000000000000000e+00 0.0000000000000000e+00 0.0000000000000000e+00  0.0000000000000000e+00 0.0000000000000000e+00 0.0000000000000000e+00  0.0000000000000000e+00 0.0000000000000000e+00 0.0000000000000000e+00  0.0000000000000000e+00 0.0000000000000000e+00 0.0000000000000000e+00  0.0000000000000000e+00 0.0000000000000000e+00 0.0000000000000000e+00  0.0000000000000000e+00 0.0000000000000000e+00 0.0000000000000000e+00  0.0000000000000000e+00 0.0000000000000000e+00 0.0000000000000000e+00  0.0000000000000000e+00 0.0000000000000000e+00 0.0000000000000000e+00  0.0000000000000000e+00 0.0000000000000000e+00 0.0000000000000000e+00  0.0000000000000000e+00 0.0000000000000000e+00 0.0000000000000000e+00  0.0000000000000000e+00 0.0000000000000000e+00 0.0000000000000000e+00  0.0000000000000000e+00 0.0000000000000000e+00 0.0000000000000000e+00  0.0000000000000000e+00 0.0000000000000000e+00 0.0000000000000000e+00  0.0000000000000000e+00 0.0000000000000000e+00 0.0000000000000000e+00  0.0000000000000000e+00 0.0000000000000000e+00 0.0000000000000000e+00  0.0000000000000000e+00 0.0000000000000000e+00 0.0000000000000000e+00  0.0000000000000000e+00 0.0000000000000000e+00 0.0000000000000000e+00  0.0000000000000000e+00 0.0000000000000000e+00 0.0000000000000000e+00  0.0000000000000000e+00 0.0000000000000000e+00 0.0000000000000000e+00  0.0000000000000000e+00 0.0000000000000000e+00 0.0000000000000000e+00  0.0000000000000000e+00 0.0000000000000000e+00 0.0000000000000000e+00  0.0000000000000000e+00 0.0000000000000000e+00 0.0000000000000000e+00  0.0000000000000000e+00 0.0000000000000000e+00 0.0000000000000000e+00  0.0000000000000000e+00 0.0000000000000000e+00 0.0000000000000000e+00  0.0000000000000000e+00 0.0000000000000000e+00 0.0000000000000000e+00  0.0000000000000000e+00 0.0000000000000000e+00 0.0000000000000000e+00  0.0000000000000000e+00 0.0000000000000000e+00 0.0000000000000000e+00  0.0000000000000000e+00 0.0000000000000000e+00 0.0000000000000000e+00  0.0000000000000000e+00 0.0000000000000000e+00 0.0000000000000000e+00  0.0000000000000000e+00 0.0000000000000000e+00 0.0000000000000000e+00  0.0000000000000000e+00 0.0000000000000000e+00 0.0000000000000000e+00  0.0000000000000000e+00 0.0000000000000000e+00 0.0000000000000000e+00  0.0000000000000000e+00 0.0000000000000000e+00 0.0000000000000000e+00  0.0000000000000000e+00 0.0000000000000000e+00 0.0000000000000000e+00  0.0000000000000000e+00 0.0000000000000000e+00 0.0000000000000000e+00  0.0000000000000000e+00 0.0000000000000000e+00 0.0000000000000000e+00  0.0000000000000000e+00 0.0000000000000000e+00 0.0000000000000000e+00  0.0000000000000000e+00 0.0000000000000000e+00 0.0000000000000000e+00  0.0000000000000000e+00 0.0000000000000000e+00 0.0000000000000000e+00  0.0000000000000000e+00 0.0000000000000000e+00 0.0000000000000000e+00  0.0000000000000000e+00 0.0000000000000000e+00 0.0000000000000000e+00  0.0000000000000000e+00 0.0000000000000000e+00 0.0000000000000000e+00  0.0000000000000000e+00 0.0000000000000000e+00 0.0000000000000000e+00  0.0000000000000000e+00 0.0000000000000000e+00 0.0000000000000000e+00  0.0000000000000000e+00 0.0000000000000000e+00 0.0000000000000000e+00  0.0000000000000000e+00 0.0000000000000000e+00 0.0000000000000000e+00  0.0000000000000000e+00 0.0000000000000000e+00 0.0000000000000000e+00  0.0000000000000000e+00 0.0000000000000000e+00 0.0000000000000000e+00  0.0000000000000000e+00 0.0000000000000000e+00 0.0000000000000000e+00  0.0000000000000000e+00 0.0000000000000000e+00 0.0000000000000000e+00  0.0000000000000000e+00 0.0000000000000000e+00 0.0000000000000000e+00  0.0000000000000000e+00 0.0000000000000000e+00 0.0000000000000000e+00  0.0000000000000000e+00 0.0000000000000000e+00 0.0000000000000000e+00  0.0000000000000000e+00 0.0000000000000000e+00 0.0000000000000000e+00  0.0000000000000000e+00 0.0000000000000000e+00 0.0000000000000000e+00  0.0000000000000000e+00 0.0000000000000000e+00 0.0000000000000000e+00  0.0000000000000000e+00 0.0000000000000000e+00 0.0000000000000000e+00  0.000000